<VTKFile type="RectilinearGrid">
<RectilinearGrid WholeExtent="0 32 0 32 0 32" GhostLevel="0">
<Piece Extent="0 32 0 32 0 32">
<CellData Scalars="p phase" Vectors="vel">
<DataArray type="Float32" Name="p">
-2.491968e-01 -2.351865e-01 -2.124157e-01 -1.818622e-01 -1.447321e-01 -1.024105e-01 -5.641482e-02 -8.352015e-03 4.011936e-02 8.732816e-02 1.316275e-01 1.714337e-01 2.052696e-01 2.318120e-01 2.499431e-01 2.588059e-01 2.578596e-01 2.469289e-01 2.262448e-01 1.964670e-01 1.586817e-01 1.143720e-01 6.535760e-02 1.370669e-02 -3.837497e-02 -8.866478e-02 -1.350461e-01 -1.756198e-01 -2.087936e-01 -2.333462e-01 -2.484636e-01 -2.537465e-01 -2.539456e-01 -2.395832e-01 -2.163199e-01 -1.851597e-01 -1.473338e-01 -1.042506e-01 -5.744910e-02 -8.556496e-03 4.075047e-02 8.878169e-02 1.338706e-01 1.744123e-01 2.089064e-01 2.360040e-01 2.545605e-01 2.636916e-01 2.628317e-01 2.517860e-01 2.307744e-01 2.004567e-01 1.619341e-01 1.167186e-01 6.667352e-02 1.392115e-02 -3.927191e-02 -9.062208e-02 -1.379567e-01 -1.793307e-01 -2.131189e-01 -2.380820e-01 -2.534006e-01 -2.586827e-01 -2.633538e-01 -2.482889e-01 -2.240469e-01 -1.916832e-01 -1.524792e-01 -1.078890e-01 -5.949409e-02 -8.960527e-03 4.199816e-02 9.165551e-02 1.383066e-01 1.803053e-01 2.161049e-01 2.443059e-01 2.637099e-01 2.733788e-01 2.726965e-01 2.614285e-01 2.397717e-01 2.083861e-01 1.684005e-01 1.213856e-01 6.929089e-02 1.434746e-02 -4.105650e-02 -9.451476e-02 -1.437430e-01 -1.867042e-01 -2.217088e-01 -2.474811e-01 -2.631934e-01 -2.684677e-01 -2.772345e-01 -2.611221e-01 -2.354286e-01 -2.012861e-01 -1.600491e-01 -1.132398e-01 -6.250086e-02 -9.554587e-03 4.383275e-02 9.588209e-02 1.448337e-01 1.889810e-01 2.267101e-01 2.565469e-01 2.772136e-01 2.876905e-01 2.872857e-01 2.757037e-01 2.531049e-01 2.201467e-01 1.779981e-01 1.283160e-01 7.317860e-02 1.498032e-02 -4.370753e-02 -1.002945e-01 -1.523284e-01 -1.976361e-01 -2.344320e-01 -2.613895e-01 -2.776697e-01 -2.829182e-01 -2.952898e-01 -2.777944e-01 -2.501998e-01 -2.137376e-01 -1.698575e-01 -1.201690e-01 -6.639337e-02 -1.032345e-02 4.620794e-02 1.013562e-01 1.532922e-01 2.002329e-01 2.404781e-01 2.724574e-01 2.947878e-01 3.063419e-01 3.063260e-01 2.943607e-01 2.705537e-01 2.355557e-01 1.905855e-01 1.374115e-01 7.828257e-02 1.581071e-02 -4.718850e-02 -1.078782e-01 -1.635832e-01 -2.119505e-01 -2.510711e-01 -2.795536e-01 -2.965494e-01 -3.017389e-01 -3.170908e-01 -2.978961e-01 -2.679858e-01 -2.287137e-01 -1.816442e-01 -1.284903e-01 -7.106566e-02 -1.124559e-02 4.906035e-02 1.079318e-01 1.634597e-01 2.137713e-01 2.570646e-01 2.916526e-01 3.160242e-01 3.289190e-01 3.294153e-01 3.170253e-01 2.917861e-01 2.543340e-01 2.059442e-01 1.485193e-01 8.451887e-02 1.682517e-02 -5.144098e-02 -1.171354e-01 -1.773059e-01 -2.293791e-01 -2.712975e-01 -3.015961e-01 -3.194205e-01 -3.245004e-01 -3.420585e-01 -3.208785e-01 -2.882898e-01 -2.457877e-01 -1.950678e-01 -1.379600e-01 -7.637985e-02 -1.229321e-02 5.230706e-02 1.154188e-01 1.750454e-01 2.292158e-01 2.760131e-01 3.136180e-01 3.403713e-01 3.548560e-01 3.559966e-01 3.431720e-01 3.163290e-01 2.760787e-01 2.237548e-01 1.614142e-01 9.176264e-02 1.800344e-02 -5.637913e-02 -1.278748e-01 -1.932039e-01 -2.495361e-01 -2.946457e-01 -3.269891e-01 -3.457144e-01 -3.506164e-01 -3.694468e-01 -3.460416e-01 -3.104833e-01 -2.644241e-01 -2.097026e-01 -1.482751e-01 -8.216494e-02 -1.343208e-02 5.584527e-02 1.235805e-01 1.876867e-01 2.460885e-01 2.967466e-01 3.376976e-01 3.671186e-01 3.834148e-01 3.853339e-01 3.720974e-01 3.435408e-01 3.002362e-01 2.435747e-01 1.757812e-01 9.983891e-02 1.931754e-02 -6.188152e-02 -1.398288e-01 -2.108718e-01 -2.718934e-01 -3.204855e-01 -3.550278e-01 -3.746814e-01 -3.793238e-01 -3.983364e-01 -3.725312e-01 -3.338061e-01 -2.839797e-01 -2.250410e-01 -1.590759e-01 -8.821796e-02 -1.462057e-02 5.955378e-02 1.321360e-01 2.009492e-01 2.638139e-01 3.185649e-01 3.630887e-01 3.953869e-01 4.136721e-01 4.164952e-01 4.028997e-01 3.725889e-01 3.260804e-01 2.648169e-01 1.911999e-01 1.085137e-01 2.073109e-02 -6.778460e-02 -1.526399e-01 -2.297740e-01 -2.957605e-01 -3.480035e-01 -3.848123e-01 -4.053761e-01 -4.096715e-01 -4.276445e-01 -3.993505e-01 -3.573775e-01 -3.037144e-01 -2.405011e-01 -1.699524e-01 -9.430840e-02 -1.581246e-02 6.329371e-02 1.407633e-01 2.143350e-01 2.817286e-01 3.406553e-01 3.888500e-01 4.241348e-01 4.445211e-01 4.483508e-01 4.344727e-01 4.024400e-01 3.527000e-01 2.867386e-01 2.071349e-01 1.174874e-01 2.219668e-02 -7.388047e-02 -1.658559e-01 -2.492371e-01 -3.202784e-01 -3.761982e-01 -4.152482e-01 -4.366611e-01 -4.405279e-01 -4.561547e-01 -4.253893e-01 -3.802243e-01 -3.228150e-01 -2.554475e-01 -1.804580e-01 -1.001866e-01 -1.695865e-02 6.691262e-02 1.491109e-01 2.272979e-01 2.991008e-01 3.621138e-01 4.139260e-01 4.521836e-01 4.746970e-01 4.795950e-01 4.655232e-01 4.318729e-01 3.790084e-01 3.084470e-01 2.229387e-01 1.263965e-01 2.365666e-02 -7.991803e-02 -1.789326e-01 -2.684575e-01 -3.444308e-01 -4.038977e-01 -4.450681e-01 -4.672333e-01 -4.706091e-01 -4.825726e-01 -4.494756e-01 -4.013263e-01 -3.404348e-01 -2.692207e-01 -1.901311e-01 -1.055947e-01 -1.800879e-02 7.025213e-02 1.568120e-01 2.392664e-01 3.151606e-01 3.819839e-01 4.371917e-01 4.782662e-01 5.028266e-01 5.087955e-01 4.946180e-01 4.595213e-01 4.037788e-01 3.289266e-01 2.378706e-01 1.348238e-01 2.504455e-02 -8.561080e-02 -1.912530e-01 -2.865300e-01 -3.670837e-01 -4.298069e-01 -4.728861e-01 -4.956820e-01 -4.985382e-01 -5.056077e-01 -4.704474e-01 -4.196771e-01 -3.557414e-01 -2.811755e-01 -1.985211e-01 -1.102819e-01 -1.891464e-02 7.315601e-02 1.635059e-01 2.496764e-01 3.291448e-01 3.993115e-01 4.575167e-01 5.010984e-01 5.275057e-01 5.344744e-01 5.202652e-01 4.839505e-01 4.257124e-01 3.470945e-01 2.511368e-01 1.423204e-01 2.628705e-02 -9.065484e-02 -2.021629e-01 -3.025025e-01 -3.870542e-01 -4.525879e-01 -4.972841e-01 -5.205775e-01 -5.229316e-01 -5.240691e-01 -4.872374e-01 -4.343554e-01 -3.679753e-01 -2.907242e-01 -2.052189e-01 -1.140215e-01 -1.963439e-02 7.547976e-02 1.688605e-01 2.580083e-01 3.403481e-01 4.132106e-01 4.738445e-01 5.194717e-01 5.474026e-01 5.552191e-01 5.410272e-01 5.037666e-01 4.435377e-01 3.618843e-01 2.619515e-01 1.484396e-01 2.730886e-02 -9.475322e-02 -2.110244e-01 -3.154521e-01 -4.032071e-01 -4.709692e-01 -5.169272e-01 -5.405845e-01 -5.425059e-01 -5.369668e-01 -4.989599e-01 -4.445979e-01 -3.765078e-01 -2.973812e-01 -2.098866e-01 -1.166264e-01 -2.013400e-02 7.710244e-02 1.725985e-01 2.638270e-01 3.481777e-01 4.229335e-01 4.852793e-01 5.323559e-01 5.613755e-01 5.698098e-01 5.556533e-01 5.177483e-01 4.561338e-01 3.723499e-01 2.696138e-01 1.527803e-01 2.803939e-02 -9.764672e-02 -2.172800e-01 -3.245793e-01 -4.145688e-01 -4.838721e-01 -5.306920e-01 -5.545861e-01 -5.561914e-01 -5.435972e-01 -5.049845e-01 -4.498605e-01 -3.808907e-01 -3.007998e-01 -2.122831e-01 -1.179633e-01 -2.038970e-02 7.793695e-02 1.745201e-01 2.668189e-01 3.522051e-01 4.279376e-01 4.911687e-01 5.389973e-01 5.685846e-01 5.773451e-01 5.632143e-01 5.249835e-01 4.626584e-01 3.777762e-01 2.735900e-01 1.550348e-01 2.842100e-02 -9.914411e-02 -2.205173e-01 -3.292974e-01 -4.204334e-01 -4.905229e-01 -5.377795e-01 -5.617901e-01 -5.632293e-01 -5.435972e-01 -5.049845e-01 -4.498605e-01 -3.808907e-01 -3.007999e-01 -2.122831e-01 -1.179633e-01 -2.038968e-02 7.793693e-02 1.745201e-01 2.668188e-01 3.522051e-01 4.279375e-01 4.911687e-01 5.389973e-01 5.685846e-01 5.773450e-01 5.632143e-01 5.249834e-01 4.626584e-01 3.777762e-01 2.735900e-01 1.550348e-01 2.842102e-02 -9.914412e-02 -2.205173e-01 -3.292974e-01 -4.204334e-01 -4.905229e-01 -5.377795e-01 -5.617901e-01 -5.632293e-01 -5.369668e-01 -4.989599e-01 -4.445979e-01 -3.765078e-01 -2.973812e-01 -2.098866e-01 -1.166264e-01 -2.013402e-02 7.710246e-02 1.725985e-01 2.638271e-01 3.481777e-01 4.229335e-01 4.852793e-01 5.323559e-01 5.613755e-01 5.698098e-01 5.556533e-01 5.177483e-01 4.561338e-01 3.723499e-01 2.696138e-01 1.527803e-01 2.803938e-02 -9.764671e-02 -2.172800e-01 -3.245793e-01 -4.145688e-01 -4.838721e-01 -5.306921e-01 -5.545861e-01 -5.561914e-01 -5.240691e-01 -4.872374e-01 -4.343555e-01 -3.679753e-01 -2.907242e-01 -2.052189e-01 -1.140215e-01 -1.963437e-02 7.547974e-02 1.688606e-01 2.580083e-01 3.403481e-01 4.132106e-01 4.738445e-01 5.194717e-01 5.474026e-01 5.552191e-01 5.410272e-01 5.037666e-01 4.435377e-01 3.618843e-01 2.619515e-01 1.484396e-01 2.730888e-02 -9.475323e-02 -2.110244e-01 -3.154521e-01 -4.032071e-01 -4.709692e-01 -5.169272e-01 -5.405845e-01 -5.425058e-01 -5.056077e-01 -4.704474e-01 -4.196771e-01 -3.557414e-01 -2.811755e-01 -1.985211e-01 -1.102819e-01 -1.891465e-02 7.315602e-02 1.635059e-01 2.496764e-01 3.291448e-01 3.993115e-01 4.575166e-01 5.010984e-01 5.275057e-01 5.344744e-01 5.202652e-01 4.839505e-01 4.257124e-01 3.470945e-01 2.511368e-01 1.423204e-01 2.628704e-02 -9.065483e-02 -2.021629e-01 -3.025025e-01 -3.870542e-01 -4.525878e-01 -4.972841e-01 -5.205775e-01 -5.229316e-01 -4.825726e-01 -4.494756e-01 -4.013263e-01 -3.404347e-01 -2.692207e-01 -1.901311e-01 -1.055947e-01 -1.800878e-02 7.025212e-02 1.568121e-01 2.392664e-01 3.151606e-01 3.819839e-01 4.371917e-01 4.782662e-01 5.028266e-01 5.087955e-01 4.946180e-01 4.595213e-01 4.037788e-01 3.289266e-01 2.378706e-01 1.348238e-01 2.504456e-02 -8.561081e-02 -1.912529e-01 -2.865301e-01 -3.670837e-01 -4.298069e-01 -4.728861e-01 -4.956820e-01 -4.985382e-01 -4.561547e-01 -4.253894e-01 -3.802243e-01 -3.228151e-01 -2.554475e-01 -1.804581e-01 -1.001866e-01 -1.695867e-02 6.691263e-02 1.491109e-01 2.272979e-01 2.991008e-01 3.621138e-01 4.139260e-01 4.521836e-01 4.746970e-01 4.795951e-01 4.655232e-01 4.318729e-01 3.790084e-01 3.084470e-01 2.229387e-01 1.263965e-01 2.365665e-02 -7.991802e-02 -1.789326e-01 -2.684575e-01 -3.444308e-01 -4.038977e-01 -4.450681e-01 -4.672333e-01 -4.706092e-01 -4.276445e-01 -3.993505e-01 -3.573775e-01 -3.037143e-01 -2.405012e-01 -1.699524e-01 -9.430842e-02 -1.581244e-02 6.329369e-02 1.407633e-01 2.143350e-01 2.817286e-01 3.406553e-01 3.888500e-01 4.241348e-01 4.445211e-01 4.483508e-01 4.344727e-01 4.024400e-01 3.527000e-01 2.867386e-01 2.071349e-01 1.174874e-01 2.219669e-02 -7.388049e-02 -1.658559e-01 -2.492372e-01 -3.202784e-01 -3.761982e-01 -4.152482e-01 -4.366611e-01 -4.405279e-01 -3.983364e-01 -3.725312e-01 -3.338061e-01 -2.839797e-01 -2.250410e-01 -1.590759e-01 -8.821794e-02 -1.462059e-02 5.955380e-02 1.321359e-01 2.009492e-01 2.638138e-01 3.185649e-01 3.630887e-01 3.953869e-01 4.136720e-01 4.164952e-01 4.028997e-01 3.725889e-01 3.260804e-01 2.648169e-01 1.911999e-01 1.085137e-01 2.073108e-02 -6.778458e-02 -1.526399e-01 -2.297740e-01 -2.957605e-01 -3.480035e-01 -3.848123e-01 -4.053761e-01 -4.096716e-01 -3.694468e-01 -3.460416e-01 -3.104833e-01 -2.644241e-01 -2.097026e-01 -1.482750e-01 -8.216495e-02 -1.343206e-02 5.584526e-02 1.235806e-01 1.876867e-01 2.460886e-01 2.967465e-01 3.376976e-01 3.671185e-01 3.834149e-01 3.853339e-01 3.720974e-01 3.435408e-01 3.002362e-01 2.435747e-01 1.757812e-01 9.983890e-02 1.931756e-02 -6.188154e-02 -1.398288e-01 -2.108718e-01 -2.718934e-01 -3.204855e-01 -3.550277e-01 -3.746814e-01 -3.793238e-01 -3.420585e-01 -3.208785e-01 -2.882898e-01 -2.457878e-01 -1.950678e-01 -1.379600e-01 -7.637983e-02 -1.229322e-02 5.230707e-02 1.154187e-01 1.750454e-01 2.292158e-01 2.760132e-01 3.136180e-01 3.403714e-01 3.548560e-01 3.559966e-01 3.431720e-01 3.163290e-01 2.760787e-01 2.237549e-01 1.614142e-01 9.176265e-02 1.800343e-02 -5.637912e-02 -1.278749e-01 -1.932039e-01 -2.495362e-01 -2.946456e-01 -3.269891e-01 -3.457144e-01 -3.506164e-01 -3.170909e-01 -2.978961e-01 -2.679858e-01 -2.287137e-01 -1.816442e-01 -1.284903e-01 -7.106567e-02 -1.124557e-02 4.906034e-02 1.079318e-01 1.634596e-01 2.137713e-01 2.570646e-01 2.916526e-01 3.160242e-01 3.289190e-01 3.294153e-01 3.170253e-01 2.917861e-01 2.543341e-01 2.059441e-01 1.485193e-01 8.451886e-02 1.682518e-02 -5.144099e-02 -1.171354e-01 -1.773059e-01 -2.293791e-01 -2.712976e-01 -3.015961e-01 -3.194205e-01 -3.245004e-01 -2.952898e-01 -2.777944e-01 -2.501998e-01 -2.137376e-01 -1.698575e-01 -1.201691e-01 -6.639335e-02 -1.032347e-02 4.620796e-02 1.013562e-01 1.532922e-01 2.002328e-01 2.404781e-01 2.724574e-01 2.947878e-01 3.063419e-01 3.063260e-01 2.943607e-01 2.705538e-01 2.355557e-01 1.905855e-01 1.374115e-01 7.828259e-02 1.581069e-02 -4.718848e-02 -1.078782e-01 -1.635832e-01 -2.119505e-01 -2.510711e-01 -2.795536e-01 -2.965493e-01 -3.017389e-01 -2.772345e-01 -2.611220e-01 -2.354287e-01 -2.012861e-01 -1.600491e-01 -1.132398e-01 -6.250088e-02 -9.554567e-03 4.383273e-02 9.588211e-02 1.448337e-01 1.889810e-01 2.267100e-01 2.565469e-01 2.772136e-01 2.876905e-01 2.872857e-01 2.757038e-01 2.531049e-01 2.201467e-01 1.779981e-01 1.283160e-01 7.317858e-02 1.498033e-02 -4.370755e-02 -1.002945e-01 -1.523284e-01 -1.976360e-01 -2.344321e-01 -2.613895e-01 -2.776697e-01 -2.829182e-01 -2.633537e-01 -2.482889e-01 -2.240469e-01 -1.916832e-01 -1.524791e-01 -1.078890e-01 -5.949407e-02 -8.960546e-03 4.199818e-02 9.165549e-02 1.383066e-01 1.803053e-01 2.161049e-01 2.443059e-01 2.637099e-01 2.733788e-01 2.726965e-01 2.614285e-01 2.397718e-01 2.083861e-01 1.684005e-01 1.213856e-01 6.929091e-02 1.434745e-02 -4.105649e-02 -9.451477e-02 -1.437430e-01 -1.867043e-01 -2.217087e-01 -2.474811e-01 -2.631934e-01 -2.684677e-01 -2.539456e-01 -2.395832e-01 -2.163199e-01 -1.851597e-01 -1.473338e-01 -1.042506e-01 -5.744912e-02 -8.556476e-03 4.075045e-02 8.878171e-02 1.338706e-01 1.744123e-01 2.089063e-01 2.360040e-01 2.545604e-01 2.636916e-01 2.628317e-01 2.517860e-01 2.307743e-01 2.004568e-01 1.619340e-01 1.167186e-01 6.667350e-02 1.392116e-02 -3.927193e-02 -9.062206e-02 -1.379567e-01 -1.793306e-01 -2.131189e-01 -2.380820e-01 -2.534007e-01 -2.586827e-01 -2.491967e-01 -2.351865e-01 -2.124157e-01 -1.818622e-01 -1.447321e-01 -1.024105e-01 -5.641480e-02 -8.352035e-03 4.011938e-02 8.732814e-02 1.316276e-01 1.714337e-01 2.052696e-01 2.318120e-01 2.499431e-01 2.588059e-01 2.578596e-01 2.469289e-01 2.262448e-01 1.964669e-01 1.586817e-01 1.143720e-01 6.535762e-02 1.370667e-02 -3.837495e-02 -8.866480e-02 -1.350461e-01 -1.756198e-01 -2.087936e-01 -2.333462e-01 -2.484635e-01 -2.537465e-01 -2.539456e-01 -2.395832e-01 -2.163199e-01 -1.851597e-01 -1.473338e-01 -1.042506e-01 -5.744910e-02 -8.556496e-03 4.075047e-02 8.878169e-02 1.338706e-01 1.744123e-01 2.089064e-01 2.360040e-01 2.545605e-01 2.636916e-01 2.628317e-01 2.517860e-01 2.307744e-01 2.004567e-01 1.619341e-01 1.167186e-01 6.667352e-02 1.392115e-02 -3.927191e-02 -9.062208e-02 -1.379567e-01 -1.793307e-01 -2.131189e-01 -2.380820e-01 -2.534006e-01 -2.586827e-01 -2.589503e-01 -2.442086e-01 -2.204209e-01 -1.886187e-01 -1.500601e-01 -1.061777e-01 -5.853247e-02 -8.771763e-03 4.140860e-02 9.030008e-02 1.362164e-01 1.775312e-01 2.127200e-01 2.404070e-01 2.594187e-01 2.688419e-01 2.680831e-01 2.569256e-01 2.355756e-01 2.046924e-01 1.653909e-01 1.192145e-01 6.807262e-02 1.414656e-02 -4.023109e-02 -9.271001e-02 -1.410569e-01 -1.832772e-01 -2.177113e-01 -2.431010e-01 -2.586233e-01 -2.638945e-01 -2.688740e-01 -2.533746e-01 -2.285431e-01 -1.954665e-01 -1.554552e-01 -1.099901e-01 -6.067545e-02 -9.197882e-03 4.271020e-02 9.330373e-02 1.408583e-01 1.837055e-01 2.202733e-01 2.491327e-01 2.690531e-01 2.790625e-01 2.785121e-01 2.671399e-01 2.451243e-01 2.131212e-01 1.722735e-01 1.241856e-01 7.085970e-02 1.459522e-02 -4.214232e-02 -9.686874e-02 -1.472290e-01 -1.911297e-01 -2.268428e-01 -2.530737e-01 -2.689931e-01 -2.742357e-01 -2.835363e-01 -2.669038e-01 -2.405211e-01 -2.055572e-01 -1.634004e-01 -1.156020e-01 -6.382920e-02 -9.825091e-03 4.462523e-02 9.772479e-02 1.476941e-01 1.928038e-01 2.314125e-01 2.620135e-01 2.832908e-01 2.941841e-01 2.939607e-01 2.822885e-01 2.593018e-01 2.256489e-01 1.825116e-01 1.315846e-01 7.500896e-02 1.526226e-02 -4.498936e-02 -1.030592e-01 -1.564089e-01 -2.027976e-01 -2.403964e-01 -2.678590e-01 -2.843490e-01 -2.895315e-01 -3.026453e-01 -2.845116e-01 -2.560909e-01 -2.186602e-01 -1.737086e-01 -1.228785e-01 -6.791695e-02 -1.063826e-02 4.710701e-02 1.034568e-01 1.565629e-01 2.046186e-01 2.458941e-01 2.787814e-01 3.018526e-01 3.139298e-01 3.141669e-01 3.021352e-01 2.779053e-01 2.421105e-01 1.959802e-01 1.413261e-01 8.047379e-02 1.613905e-02 -4.874200e-02 -1.112106e-01 -1.684830e-01 -2.181236e-01 -2.581723e-01 -2.872191e-01 -3.044238e-01 -3.094962e-01 -3.257748e-01 -3.057875e-01 -2.748755e-01 -2.344481e-01 -1.861162e-01 -1.316302e-01 -7.283121e-02 -1.161560e-02 5.009058e-02 1.103513e-01 1.672388e-01 2.188568e-01 2.633706e-01 2.990505e-01 3.243317e-01 3.378907e-01 3.387376e-01 3.263190e-01 3.006190e-01 2.622448e-01 2.124780e-01 1.532711e-01 8.717780e-02 1.721255e-02 -5.334914e-02 -1.212059e-01 -1.832674e-01 -2.368573e-01 -2.798591e-01 -3.107905e-01 -3.288156e-01 -3.337063e-01 -3.523390e-01 -3.301741e-01 -2.963684e-01 -2.524848e-01 -2.002739e-01 -1.416075e-01 -7.843031e-02 -1.272843e-02 5.349120e-02 1.182129e-01 1.794238e-01 2.351288e-01 2.833761e-01 3.222977e-01 3.501699e-01 3.654972e-01 3.671168e-01 3.543201e-01 3.269798e-01 2.856617e-01 2.316993e-01 1.672056e-01 9.500300e-02 1.846300e-02 -5.873047e-02 -1.328643e-01 -2.004820e-01 -2.586254e-01 -3.050002e-01 -3.380508e-01 -3.569565e-01 -3.615727e-01 -3.815709e-01 -3.569500e-01 -3.199207e-01 -2.722168e-01 -2.157413e-01 -1.524967e-01 -8.453713e-02 -1.394074e-02 5.720283e-02 1.267975e-01 1.927428e-01 2.529409e-01 3.053151e-01 3.478469e-01 3.786366e-01 3.959934e-01 3.985537e-01 3.854250e-01 3.563413e-01 3.118074e-01 2.532037e-01 1.828181e-01 1.037770e-01 1.986270e-02 -6.476702e-02 -1.459216e-01 -2.197238e-01 -2.828984e-01 -3.329598e-01 -3.682833e-01 -3.880805e-01 -3.923124e-01 -4.125091e-01 -3.852221e-01 -3.447375e-01 -2.929714e-01 -2.319872e-01 -1.639217e-01 -9.093925e-02 -1.520917e-02 6.109917e-02 1.358119e-01 2.067433e-01 2.716931e-01 3.284575e-01 3.748607e-01 4.088150e-01 4.284167e-01 4.320786e-01 4.186974e-01 3.878413e-01 3.399324e-01 2.763879e-01 1.996780e-01 1.132602e-01 2.137407e-02 -7.129177e-02 -1.600118e-01 -2.404417e-01 -3.089626e-01 -3.628926e-01 -4.005507e-01 -4.212007e-01 -4.249317e-01 -4.440027e-01 -4.139327e-01 -3.698862e-01 -3.139663e-01 -2.483976e-01 -1.754498e-01 -9.739358e-02 -1.648433e-02 6.503474e-02 1.449185e-01 2.209017e-01 2.906868e-01 3.519456e-01 4.023446e-01 4.396035e-01 4.615956e-01 4.664942e-01 4.529641e-01 4.203838e-01 3.690708e-01 3.004652e-01 2.172187e-01 1.231365e-01 2.294786e-02 -7.808391e-02 -1.746544e-01 -2.619196e-01 -3.359026e-01 -3.937310e-01 -4.336853e-01 -4.551046e-01 -4.582253e-01 -4.747394e-01 -4.418886e-01 -3.943246e-01 -3.343336e-01 -2.642956e-01 -1.866061e-01 -1.036343e-01 -1.771314e-02 6.884929e-02 1.537452e-01 2.346391e-01 3.091445e-01 3.748169e-01 4.291715e-01 4.697392e-01 4.941698e-01 5.003916e-01 4.868254e-01 4.526439e-01 3.980411e-01 3.244636e-01 2.347350e-01 1.330104e-01 2.452289e-02 -8.486701e-02 -1.892530e-01 -2.832775e-01 -3.626069e-01 -4.241944e-01 -4.663060e-01 -4.883762e-01 -4.908034e-01 -5.033044e-01 -4.678155e-01 -4.169487e-01 -3.531604e-01 -2.789733e-01 -1.968961e-01 -1.093855e-01 -1.884089e-02 7.237478e-02 1.619019e-01 2.473455e-01 3.262422e-01 3.960436e-01 4.541271e-01 4.978474e-01 5.246419e-01 5.322004e-01 5.187019e-01 4.831081e-01 4.254784e-01 3.472493e-01 2.513988e-01 1.424161e-01 2.602740e-02 -9.131590e-02 -2.031107e-01 -3.034966e-01 -3.878031e-01 -4.528358e-01 -4.968712e-01 -5.194553e-01 -5.211519e-01 -5.282705e-01 -4.904378e-01 -4.366608e-01 -3.695439e-01 -2.917332e-01 -2.058344e-01 -1.143770e-01 -1.981525e-02 7.544468e-02 1.690022e-01 2.584150e-01 3.411568e-01 4.145922e-01 4.759799e-01 5.225205e-01 5.514618e-01 5.602772e-01 5.469220e-01 5.101572e-01 4.499073e-01 3.675861e-01 2.663009e-01 1.508399e-01 2.738114e-02 -9.707475e-02 -2.154687e-01 -3.214774e-01 -4.101333e-01 -4.781291e-01 -5.237758e-01 -5.467360e-01 -5.477292e-01 -5.483117e-01 -5.085766e-01 -4.524504e-01 -3.826559e-01 -3.019376e-01 -2.129781e-01 -1.183637e-01 -2.059009e-02 7.790424e-02 1.746889e-01 2.672866e-01 3.531233e-01 4.294960e-01 4.935699e-01 5.424214e-01 5.731437e-01 5.830313e-01 5.698511e-01 5.321916e-01 4.698567e-01 3.842311e-01 2.785215e-01 1.577593e-01 2.850096e-02 -1.017860e-01 -2.255678e-01 -3.361307e-01 -4.282682e-01 -4.986002e-01 -5.454877e-01 -5.687022e-01 -5.690925e-01 -5.623241e-01 -5.212519e-01 -4.634782e-01 -3.918089e-01 -3.090576e-01 -2.179605e-01 -1.211428e-01 -2.112833e-02 7.962341e-02 1.786625e-01 2.734885e-01 3.614958e-01 4.399353e-01 5.059072e-01 5.564014e-01 5.884015e-01 5.990743e-01 5.860499e-01 5.477902e-01 4.840077e-01 3.960615e-01 2.872230e-01 1.626946e-01 2.930689e-02 -1.051293e-01 -2.327305e-01 -3.464966e-01 -4.410547e-01 -5.129892e-01 -5.607141e-01 -5.840844e-01 -5.840391e-01 -5.695290e-01 -5.277685e-01 -4.691468e-01 -3.965128e-01 -3.127159e-01 -2.205198e-01 -1.225699e-01 -2.140389e-02 8.050794e-02 1.807063e-01 2.766793e-01 3.658054e-01 4.453123e-01 5.122674e-01 5.636155e-01 5.962839e-01 6.073723e-01 5.944391e-01 5.558792e-01 4.913561e-01 4.022133e-01 2.917540e-01 1.652677e-01 2.973036e-02 -1.068648e-01 -2.364479e-01 -3.518664e-01 -4.476612e-01 -5.204063e-01 -5.685512e-01 -5.919965e-01 -5.917252e-01 -5.695290e-01 -5.277685e-01 -4.691467e-01 -3.965128e-01 -3.127159e-01 -2.205198e-01 -1.225699e-01 -2.140391e-02 8.050796e-02 1.807062e-01 2.766793e-01 3.658054e-01 4.453124e-01 5.122674e-01 5.636155e-01 5.962839e-01 6.073723e-01 5.944390e-01 5.558792e-01 4.913561e-01 4.022133e-01 2.917540e-01 1.652677e-01 2.973035e-02 -1.068648e-01 -2.364479e-01 -3.518664e-01 -4.476612e-01 -5.204063e-01 -5.685512e-01 -5.919965e-01 -5.917252e-01 -5.623241e-01 -5.212519e-01 -4.634782e-01 -3.918089e-01 -3.090577e-01 -2.179605e-01 -1.211429e-01 -2.112832e-02 7.962339e-02 1.786625e-01 2.734885e-01 3.614958e-01 4.399352e-01 5.059072e-01 5.564014e-01 5.884016e-01 5.990743e-01 5.860499e-01 5.477902e-01 4.840077e-01 3.960614e-01 2.872230e-01 1.626945e-01 2.930690e-02 -1.051293e-01 -2.327305e-01 -3.464966e-01 -4.410547e-01 -5.129893e-01 -5.607141e-01 -5.840845e-01 -5.840391e-01 -5.483117e-01 -5.085766e-01 -4.524504e-01 -3.826559e-01 -3.019376e-01 -2.129781e-01 -1.183637e-01 -2.059011e-02 7.790425e-02 1.746889e-01 2.672866e-01 3.531233e-01 4.294960e-01 4.935699e-01 5.424214e-01 5.731437e-01 5.830314e-01 5.698511e-01 5.321916e-01 4.698566e-01 3.842312e-01 2.785215e-01 1.577593e-01 2.850095e-02 -1.017859e-01 -2.255678e-01 -3.361306e-01 -4.282682e-01 -4.986002e-01 -5.454877e-01 -5.687022e-01 -5.690925e-01 -5.282705e-01 -4.904378e-01 -4.366608e-01 -3.695439e-01 -2.917332e-01 -2.058344e-01 -1.143770e-01 -1.981523e-02 7.544466e-02 1.690022e-01 2.584149e-01 3.411568e-01 4.145922e-01 4.759799e-01 5.225205e-01 5.514618e-01 5.602772e-01 5.469220e-01 5.101572e-01 4.499073e-01 3.675861e-01 2.663009e-01 1.508398e-01 2.738115e-02 -9.707476e-02 -2.154687e-01 -3.214774e-01 -4.101333e-01 -4.781291e-01 -5.237757e-01 -5.467360e-01 -5.477291e-01 -5.033044e-01 -4.678155e-01 -4.169487e-01 -3.531604e-01 -2.789732e-01 -1.968961e-01 -1.093854e-01 -1.884091e-02 7.237480e-02 1.619019e-01 2.473455e-01 3.262422e-01 3.960436e-01 4.541271e-01 4.978474e-01 5.246419e-01 5.322004e-01 5.187019e-01 4.831081e-01 4.254784e-01 3.472493e-01 2.513988e-01 1.424161e-01 2.602739e-02 -9.131589e-02 -2.031107e-01 -3.034966e-01 -3.878032e-01 -4.528358e-01 -4.968712e-01 -5.194553e-01 -5.211519e-01 -4.747394e-01 -4.418886e-01 -3.943246e-01 -3.343336e-01 -2.642956e-01 -1.866061e-01 -1.036343e-01 -1.771312e-02 6.884927e-02 1.537452e-01 2.346391e-01 3.091446e-01 3.748169e-01 4.291715e-01 4.697392e-01 4.941698e-01 5.003916e-01 4.868255e-01 4.526439e-01 3.980411e-01 3.244636e-01 2.347351e-01 1.330104e-01 2.452291e-02 -8.486702e-02 -1.892530e-01 -2.832775e-01 -3.626069e-01 -4.241944e-01 -4.663059e-01 -4.883762e-01 -4.908034e-01 -4.440027e-01 -4.139327e-01 -3.698862e-01 -3.139663e-01 -2.483976e-01 -1.754498e-01 -9.739356e-02 -1.648435e-02 6.503475e-02 1.449185e-01 2.209017e-01 2.906868e-01 3.519456e-01 4.023446e-01 4.396035e-01 4.615956e-01 4.664942e-01 4.529641e-01 4.203838e-01 3.690708e-01 3.004652e-01 2.172187e-01 1.231365e-01 2.294785e-02 -7.808390e-02 -1.746544e-01 -2.619196e-01 -3.359027e-01 -3.937310e-01 -4.336853e-01 -4.551046e-01 -4.582253e-01 -4.125091e-01 -3.852221e-01 -3.447375e-01 -2.929714e-01 -2.319872e-01 -1.639217e-01 -9.093927e-02 -1.520915e-02 6.109915e-02 1.358119e-01 2.067433e-01 2.716931e-01 3.284574e-01 3.748607e-01 4.088150e-01 4.284167e-01 4.320786e-01 4.186975e-01 3.878413e-01 3.399324e-01 2.763879e-01 1.996780e-01 1.132602e-01 2.137408e-02 -7.129178e-02 -1.600118e-01 -2.404417e-01 -3.089625e-01 -3.628926e-01 -4.005507e-01 -4.212008e-01 -4.249316e-01 -3.815708e-01 -3.569500e-01 -3.199207e-01 -2.722168e-01 -2.157413e-01 -1.524967e-01 -8.453711e-02 -1.394076e-02 5.720285e-02 1.267975e-01 1.927428e-01 2.529409e-01 3.053151e-01 3.478469e-01 3.786366e-01 3.959934e-01 3.985537e-01 3.854250e-01 3.563413e-01 3.118074e-01 2.532037e-01 1.828181e-01 1.037770e-01 1.986269e-02 -6.476701e-02 -1.459216e-01 -2.197238e-01 -2.828984e-01 -3.329597e-01 -3.682833e-01 -3.880805e-01 -3.923124e-01 -3.523390e-01 -3.301740e-01 -2.963684e-01 -2.524848e-01 -2.002739e-01 -1.416074e-01 -7.843033e-02 -1.272841e-02 5.349118e-02 1.182129e-01 1.794238e-01 2.351288e-01 2.833761e-01 3.222977e-01 3.501699e-01 3.654973e-01 3.671168e-01 3.543201e-01 3.269798e-01 2.856617e-01 2.316992e-01 1.672056e-01 9.500299e-02 1.846302e-02 -5.873049e-02 -1.328643e-01 -2.004820e-01 -2.586254e-01 -3.050002e-01 -3.380508e-01 -3.569565e-01 -3.615727e-01 -3.257747e-01 -3.057875e-01 -2.748755e-01 -2.344481e-01 -1.861162e-01 -1.316302e-01 -7.283119e-02 -1.161562e-02 5.009060e-02 1.103512e-01 1.672388e-01 2.188568e-01 2.633706e-01 2.990505e-01 3.243317e-01 3.378907e-01 3.387376e-01 3.263190e-01 3.006190e-01 2.622448e-01 2.124780e-01 1.532711e-01 8.717781e-02 1.721253e-02 -5.334912e-02 -1.212059e-01 -1.832673e-01 -2.368573e-01 -2.798590e-01 -3.107906e-01 -3.288156e-01 -3.337063e-01 -3.026453e-01 -2.845116e-01 -2.560909e-01 -2.186602e-01 -1.737087e-01 -1.228784e-01 -6.791697e-02 -1.063824e-02 4.710699e-02 1.034568e-01 1.565629e-01 2.046187e-01 2.458941e-01 2.787815e-01 3.018526e-01 3.139299e-01 3.141669e-01 3.021352e-01 2.779052e-01 2.421105e-01 1.959802e-01 1.413262e-01 8.047377e-02 1.613907e-02 -4.874201e-02 -1.112106e-01 -1.684830e-01 -2.181235e-01 -2.581723e-01 -2.872190e-01 -3.044238e-01 -3.094961e-01 -2.835363e-01 -2.669038e-01 -2.405211e-01 -2.055572e-01 -1.634004e-01 -1.156020e-01 -6.382918e-02 -9.825111e-03 4.462525e-02 9.772477e-02 1.476941e-01 1.928038e-01 2.314125e-01 2.620134e-01 2.832908e-01 2.941841e-01 2.939607e-01 2.822885e-01 2.593018e-01 2.256489e-01 1.825116e-01 1.315846e-01 7.500898e-02 1.526224e-02 -4.498935e-02 -1.030592e-01 -1.564089e-01 -2.027976e-01 -2.403964e-01 -2.678590e-01 -2.843490e-01 -2.895315e-01 -2.688740e-01 -2.533746e-01 -2.285431e-01 -1.954665e-01 -1.554552e-01 -1.099901e-01 -6.067547e-02 -9.197863e-03 4.271018e-02 9.330375e-02 1.408583e-01 1.837056e-01 2.202732e-01 2.491327e-01 2.690531e-01 2.790625e-01 2.785121e-01 2.671399e-01 2.451243e-01 2.131213e-01 1.722735e-01 1.241856e-01 7.085968e-02 1.459524e-02 -4.214234e-02 -9.686873e-02 -1.472290e-01 -1.911297e-01 -2.268428e-01 -2.530737e-01 -2.689931e-01 -2.742356e-01 -2.589503e-01 -2.442086e-01 -2.204208e-01 -1.886188e-01 -1.500601e-01 -1.061777e-01 -5.853245e-02 -8.771782e-03 4.140862e-02 9.030006e-02 1.362164e-01 1.775312e-01 2.127200e-01 2.404070e-01 2.594187e-01 2.688418e-01 2.680831e-01 2.569255e-01 2.355757e-01 2.046924e-01 1.653909e-01 1.192145e-01 6.807263e-02 1.414654e-02 -4.023108e-02 -9.271002e-02 -1.410569e-01 -1.832773e-01 -2.177113e-01 -2.431010e-01 -2.586233e-01 -2.638945e-01 -2.539456e-01 -2.395832e-01 -2.163199e-01 -1.851597e-01 -1.473338e-01 -1.042506e-01 -5.744912e-02 -8.556476e-03 4.075045e-02 8.878171e-02 1.338706e-01 1.744123e-01 2.089063e-01 2.360040e-01 2.545604e-01 2.636916e-01 2.628317e-01 2.517860e-01 2.307743e-01 2.004568e-01 1.619340e-01 1.167186e-01 6.667350e-02 1.392116e-02 -3.927193e-02 -9.062206e-02 -1.379567e-01 -1.793306e-01 -2.131189e-01 -2.380820e-01 -2.534007e-01 -2.586827e-01 -2.633538e-01 -2.482889e-01 -2.240469e-01 -1.916832e-01 -1.524792e-01 -1.078890e-01 -5.949409e-02 -8.960527e-03 4.199816e-02 9.165551e-02 1.383066e-01 1.803053e-01 2.161049e-01 2.443059e-01 2.637099e-01 2.733788e-01 2.726965e-01 2.614285e-01 2.397717e-01 2.083861e-01 1.684005e-01 1.213856e-01 6.929089e-02 1.434746e-02 -4.105650e-02 -9.451476e-02 -1.437430e-01 -1.867042e-01 -2.217088e-01 -2.474811e-01 -2.631934e-01 -2.684677e-01 -2.688740e-01 -2.533746e-01 -2.285431e-01 -1.954665e-01 -1.554552e-01 -1.099901e-01 -6.067545e-02 -9.197882e-03 4.271020e-02 9.330373e-02 1.408583e-01 1.837055e-01 2.202733e-01 2.491327e-01 2.690531e-01 2.790625e-01 2.785121e-01 2.671399e-01 2.451243e-01 2.131212e-01 1.722735e-01 1.241856e-01 7.085970e-02 1.459522e-02 -4.214232e-02 -9.686874e-02 -1.472290e-01 -1.911297e-01 -2.268428e-01 -2.530737e-01 -2.689931e-01 -2.742357e-01 -2.798376e-01 -2.634675e-01 -2.374601e-01 -2.029651e-01 -1.613511e-01 -1.141511e-01 -6.301478e-02 -9.668252e-03 4.411934e-02 9.656726e-02 1.459127e-01 1.904438e-01 2.285386e-01 2.587106e-01 2.796643e-01 2.903599e-01 2.900825e-01 2.785130e-01 2.557922e-01 2.225661e-01 1.800038e-01 1.297766e-01 7.399269e-02 1.508913e-02 -4.431265e-02 -1.015707e-01 -1.541877e-01 -1.999570e-01 -2.370749e-01 -2.642099e-01 -2.805312e-01 -2.857006e-01 -2.960788e-01 -2.784004e-01 -2.506383e-01 -2.140365e-01 -1.700496e-01 -1.202867e-01 -6.646311e-02 -1.036214e-02 4.619536e-02 1.013775e-01 1.533670e-01 2.003899e-01 2.407512e-01 2.728794e-01 2.953828e-01 3.071191e-01 3.072724e-01 2.954355e-01 2.716882e-01 2.366578e-01 1.915498e-01 1.381335e-01 7.867675e-02 1.582511e-02 -4.756208e-02 -1.086027e-01 -1.645835e-01 -2.131280e-01 -2.523205e-01 -2.807781e-01 -2.976719e-01 -3.027078e-01 -3.173221e-01 -2.978985e-01 -2.678189e-01 -2.284511e-01 -1.813628e-01 -1.282607e-01 -7.094305e-02 -1.126441e-02 4.889025e-02 1.076263e-01 1.630588e-01 2.133359e-01 2.566692e-01 2.913770e-01 3.159414e-01 3.290828e-01 3.298474e-01 3.177058e-01 2.926495e-01 2.552737e-01 2.068253e-01 1.492015e-01 8.488236e-02 1.679593e-02 -5.187538e-02 -1.179227e-01 -1.783411e-01 -2.305274e-01 -2.724213e-01 -3.025780e-01 -3.201787e-01 