<VTKFile type="RectilinearGrid">
<RectilinearGrid WholeExtent="0 32 0 32 0 32" GhostLevel="0">
<Piece Extent="0 32 0 32 0 32">
<CellData Scalars="p phase" Vectors="vel">
<DataArray type="Float32" Name="p">
-2.443256e-01 -2.142063e-01 -1.762996e-01 -1.320168e-01 -8.292821e-02 -3.072085e-02 2.283913e-02 7.594229e-02 1.267717e-01 1.735414e-01 2.145401e-01 2.481815e-01 2.730624e-01 2.880292e-01 2.922472e-01 2.852711e-01 2.671061e-01 2.382521e-01 1.997200e-01 1.530135e-01 1.000707e-01 4.316712e-02 -1.521291e-02 -7.252310e-02 -1.263050e-01 -1.743248e-01 -2.146841e-01 -2.458970e-01 -2.669312e-01 -2.772169e-01 -2.766288e-01 -2.654504e-01 -2.490248e-01 -2.182667e-01 -1.796133e-01 -1.345048e-01 -8.453697e-02 -3.141981e-02 2.305997e-02 7.707348e-02 1.287844e-01 1.763862e-01 2.181447e-01 2.524479e-01 2.778645e-01 2.932110e-01 2.976236e-01 2.906311e-01 2.722201e-01 2.428825e-01 2.036361e-01 1.560078e-01 1.019757e-01 4.387028e-02 -1.575863e-02 -7.429481e-02 -1.292121e-01 -1.782175e-01 -2.193668e-01 -2.511444e-01 -2.725047e-01 -2.828799e-01 -2.821594e-01 -2.706501e-01 -2.583372e-01 -2.263099e-01 -1.861762e-01 -1.394327e-01 -8.772564e-02 -3.280968e-02 2.348832e-02 7.930183e-02 1.327568e-01 1.820065e-01 2.252716e-01 2.608897e-01 2.873734e-01 3.034797e-01 3.082861e-01 3.012691e-01 2.823769e-01 2.520849e-01 2.114229e-01 1.619636e-01 1.057650e-01 4.526743e-02 -1.684806e-02 -7.782475e-02 -1.350007e-01 -1.859645e-01 -2.286808e-01 -2.615749e-01 -2.835761e-01 -2.941217e-01 -2.931313e-01 -2.809594e-01 -2.720835e-01 -2.381754e-01 -1.958546e-01 -1.467008e-01 -9.243391e-02 -3.487278e-02 2.409829e-02 8.255902e-02 1.385814e-01 1.902606e-01 2.357521e-01 2.733192e-01 3.013916e-01 3.186374e-01 3.240453e-01 3.170118e-01 2.974252e-01 2.657334e-01 2.229819e-01 1.708100e-01 1.113941e-01 4.733948e-02 -1.847516e-02 -8.308141e-02 -1.436128e-01 -1.974805e-01 -2.425129e-01 -2.770493e-01 -2.999837e-01 -3.107638e-01 -3.093566e-01 -2.961901e-01 -2.899788e-01 -2.536085e-01 -2.084371e-01 -1.561515e-01 -9.856526e-02 -3.757851e-02 2.485296e-02 8.674220e-02 1.460940e-01 2.009305e-01 2.493244e-01 2.894429e-01 3.196074e-01 3.383684e-01 3.445953e-01 3.375758e-01 3.171143e-01 2.836173e-01 2.381465e-01 1.824259e-01 1.187876e-01 5.005592e-02 -2.062610e-02 -9.000641e-02 -1.549450e-01 -2.126164e-01 -2.606702e-01 -2.973344e-01 -3.214603e-01 -3.325147e-01 -3.305319e-01 -3.160405e-01 -3.116142e-01 -2.722463e-01 -2.236230e-01 -1.675597e-01 -1.059804e-01 -4.087901e-02 2.570676e-02 9.171421e-02 1.550715e-01 2.137166e-01 2.656245e-01 3.088484e-01 3.415780e-01 3.622187e-01 3.694907e-01 3.625423e-01 3.410681e-01 3.054158e-01 2.566600e-01 1.966238e-01 1.278293e-01 5.337229e-02 -2.327389e-02 -9.850188e-02 -1.688293e-01 -2.311366e-01 -2.828534e-01 -3.220746e-01 -3.476058e-01 -3.589442e-01 -3.562145e-01 -3.400752e-01 -3.364385e-01 -2.936021e-01 -2.410103e-01 -1.806241e-01 -1.144899e-01 -4.470385e-02 2.660880e-02 9.730488e-02 1.652307e-01 2.282330e-01 2.841791e-01 3.309930e-01 3.667130e-01 3.895748e-01 3.981200e-01 3.913275e-01 3.687541e-01 3.306679e-01 2.781487e-01 2.131284e-01 1.383490e-01 5.722648e-02 -2.637231e-02 -1.084151e-01 -1.850104e-01 -2.526896e-01 -3.086244e-01 -3.507591e-01 -3.778540e-01 -3.894526e-01 -3.857954e-01 -3.677014e-01 -3.637400e-01 -3.170519e-01 -2.600854e-01 -1.949588e-01 -1.238481e-01 -4.895482e-02 2.750725e-02 1.033143e-01 1.762302e-01 2.440079e-01 3.044011e-01 3.551949e-01 3.942609e-01 4.196438e-01 4.296814e-01 4.231538e-01 3.994515e-01 3.587401e-01 3.020922e-01 2.315528e-01 1.501069e-01 6.153352e-02 -2.985005e-02 -1.195222e-01 -2.031206e-01 -2.767767e-01 -3.373716e-01 -3.826857e-01 -4.114387e-01 -4.232396e-01 -4.184724e-01 -3.981468e-01 -3.926362e-01 -3.418275e-01 -2.802180e-01 -2.100897e-01 -1.337492e-01 -5.350177e-02 2.835414e-02 1.095182e-01 1.876755e-01 2.604870e-01 3.255924e-01 3.806328e-01 4.233037e-01 4.514440e-01 4.631665e-01 4.570280e-01 4.322257e-01 3.887988e-01 3.277969e-01 2.513758e-01 1.627786e-01 6.617967e-02 -3.360599e-02 -1.315131e-01 -2.226555e-01 -3.027221e-01 -3.682769e-01 -4.169278e-01 -4.473631e-01 -4.592783e-01 -4.532290e-01 -4.304445e-01 -4.220749e-01 -3.670198e-01 -3.006660e-01 -2.254581e-01 -1.438291e-01 -5.818113e-02 2.911019e-02 1.156760e-01 1.991297e-01 2.770465e-01 3.469561e-01 4.063571e-01 4.527661e-01 4.838086e-01 4.973599e-01 4.917349e-01 4.659161e-01 4.197941e-01 3.543779e-01 2.719253e-01 1.759420e-01 7.101668e-02 -3.750662e-02 -1.439803e-01 -2.429562e-01 -3.296501e-01 -4.002910e-01 -4.523118e-01 -4.843808e-01 -4.963017e-01 -4.888271e-01 -4.634300e-01 -4.508553e-01 -3.915997e-01 -3.205929e-01 -2.404343e-01 -1.536734e-01 -6.279837e-02 2.974860e-02 1.215404e-01 2.101290e-01 2.930134e-01 3.676216e-01 4.313172e-01 4.814431e-01 5.154132e-01 5.308624e-01 5.258558e-01 4.991487e-01 4.504664e-01 3.807600e-01 2.923754e-01 1.890732e-01 7.585788e-02 -4.138750e-02 -1.564175e-01 -2.632051e-01 -3.564796e-01 -4.321290e-01 -4.874155e-01 -5.209998e-01 -5.328122e-01 -5.238219e-01 -4.957609e-01 -4.776735e-01 -4.144589e-01 -3.391024e-01 -2.543440e-01 -1.628348e-01 -6.713576e-02 3.025692e-02 1.268697e-01 2.202043e-01 3.076956e-01 3.866823e-01 4.544064e-01 5.080501e-01 5.448279e-01 5.621439e-01 5.578195e-01 5.303819e-01 4.793844e-01 4.057070e-01 3.117655e-01 2.015558e-01 8.047900e-02 -4.505991e-02 -1.682320e-01 -2.824431e-01 -3.819462e-01 -4.622985e-01 -5.206018e-01 -5.555213e-01 -5.671258e-01 -5.566090e-01 -5.259639e-01 -5.011959e-01 -4.344720e-01 -3.552892e-01 -2.665065e-01 -1.708592e-01 -7.096585e-02 3.063624e-02 1.314387e-01 2.289053e-01 3.204193e-01 4.032462e-01 4.745239e-01 5.312952e-01 5.705986e-01 5.896308e-01 5.859905e-01 5.579921e-01 5.050233e-01 4.278868e-01 3.290495e-01 2.127108e-01 8.462712e-02 -4.832293e-02 -1.787767e-01 -2.996194e-01 -4.046669e-01 -4.891744e-01 -5.501020e-01 -5.861290e-01 -5.974627e-01 -5.855127e-01 -5.525175e-01 -5.201566e-01 -4.505786e-01 -3.683036e-01 -2.762840e-01 -1.773191e-01 -7.406962e-02 3.089807e-02 1.350517e-01 2.358279e-01 3.305723e-01 4.164939e-01 4.906494e-01 5.499703e-01 5.913521e-01 6.118218e-01 6.087922e-01 5.803979e-01 5.258823e-01 4.459755e-01 3.431775e-01 2.218498e-01 8.803982e-02 -5.098044e-02 -1.874027e-01 -3.136762e-01 -4.232502e-01 -5.111285e-01 -5.741562e-01 -6.110309e-01 -6.220839e-01 -6.089127e-01 -5.739649e-01 -5.334697e-01 -4.618741e-01 -3.774237e-01 -2.831349e-01 -1.818501e-01 -7.625718e-02 3.105912e-02 1.375519e-01 2.406408e-01 3.376467e-01 4.257408e-01 5.019239e-01 5.630499e-01 6.059139e-01 6.274218e-01 6.248532e-01 5.962116e-01 5.406332e-01 4.587914e-01 3.532051e-01 2.283479e-01 9.047449e-02 -5.286069e-02 -1.935280e-01 -3.236617e-01 -4.364457e-01 -5.267023e-01 -5.911958e-01 -6.286408e-01 -6.394624e-01 -6.253977e-01 -5.890473e-01 -5.403377e-01 -4.676969e-01 -3.821227e-01 -2.866645e-01 -1.841858e-01 -7.738824e-02 3.113504e-02 1.388301e-01 2.431085e-01 3.412789e-01 4.304936e-01 5.077248e-01 5.697869e-01 6.134228e-01 6.354758e-01 6.331554e-01 6.043961e-01 5.482772e-01 4.654405e-01 3.584133e-01 2.317268e-01 9.174312e-02 -5.383532e-02 -1.967105e-01 -3.288512e-01 -4.433017e-01 -5.347889e-01 -6.000357e-01 -6.377666e-01 -6.484573e-01 -6.339198e-01 -5.968355e-01 -5.403377e-01 -4.676969e-01 -3.821227e-01 -2.866645e-01 -1.841858e-01 -7.738824e-02 3.113504e-02 1.388301e-01 2.431085e-01 3.412789e-01 4.304936e-01 5.077248e-01 5.697869e-01 6.134228e-01 6.354758e-01 6.331554e-01 6.043961e-01 5.482772e-01 4.654405e-01 3.584133e-01 2.317268e-01 9.174312e-02 -5.383532e-02 -1.967105e-01 -3.288512e-01 -4.433017e-01 -5.347889e-01 -6.000357e-01 -6.377666e-01 -6.484573e-01 -6.339198e-01 -5.968355e-01 -5.334697e-01 -4.618741e-01 -3.774237e-01 -2.831349e-01 -1.818501e-01 -7.625718e-02 3.105913e-02 1.375519e-01 2.406408e-01 3.376467e-01 4.257408e-01 5.019239e-01 5.630499e-01 6.059139e-01 6.274218e-01 6.248532e-01 5.962116e-01 5.406332e-01 4.587914e-01 3.532051e-01 2.283479e-01 9.047448e-02 -5.286069e-02 -1.935280e-01 -3.236617e-01 -4.364457e-01 -5.267023e-01 -5.911958e-01 -6.286408e-01 -6.394624e-01 -6.253977e-01 -5.890473e-01 -5.201566e-01 -4.505786e-01 -3.683036e-01 -2.762840e-01 -1.773191e-01 -7.406962e-02 3.089807e-02 1.350517e-01 2.358279e-01 3.305723e-01 4.164939e-01 4.906494e-01 5.499703e-01 5.913521e-01 6.118218e-01 6.087922e-01 5.803979e-01 5.258823e-01 4.459755e-01 3.431775e-01 2.218498e-01 8.803982e-02 -5.098044e-02 -1.874027e-01 -3.136762e-01 -4.232502e-01 -5.111285e-01 -5.741562e-01 -6.110309e-01 -6.220839e-01 -6.089127e-01 -5.739649e-01 -5.011959e-01 -4.344720e-01 -3.552892e-01 -2.665065e-01 -1.708592e-01 -7.096585e-02 3.063624e-02 1.314387e-01 2.289053e-01 3.204193e-01 4.032462e-01 4.745239e-01 5.312952e-01 5.705986e-01 5.896308e-01 5.859905e-01 5.579921e-01 5.050233e-01 4.278869e-01 3.290495e-01 2.127108e-01 8.462712e-02 -4.832293e-02 -1.787767e-01 -2.996194e-01 -4.046669e-01 -4.891744e-01 -5.501020e-01 -5.861290e-01 -5.974627e-01 -5.855127e-01 -5.525175e-01 -4.776735e-01 -4.144589e-01 -3.391024e-01 -2.543440e-01 -1.628348e-01 -6.713575e-02 3.025692e-02 1.268697e-01 2.202043e-01 3.076956e-01 3.866823e-01 4.544064e-01 5.080501e-01 5.448279e-01 5.621439e-01 5.578195e-01 5.303819e-01 4.793844e-01 4.057070e-01 3.117655e-01 2.015558e-01 8.047900e-02 -4.505991e-02 -1.682320e-01 -2.824431e-01 -3.819462e-01 -4.622985e-01 -5.206017e-01 -5.555213e-01 -5.671258e-01 -5.566090e-01 -5.259639e-01 -4.508553e-01 -3.915997e-01 -3.205929e-01 -2.404343e-01 -1.536734e-01 -6.279837e-02 2.974861e-02 1.215404e-01 2.101290e-01 2.930134e-01 3.676216e-01 4.313172e-01 4.814431e-01 5.154132e-01 5.308624e-01 5.258558e-01 4.991487e-01 4.504664e-01 3.807600e-01 2.923754e-01 1.890732e-01 7.585788e-02 -4.138750e-02 -1.564175e-01 -2.632051e-01 -3.564796e-01 -4.321290e-01 -4.874155e-01 -5.209998e-01 -5.328122e-01 -5.238219e-01 -4.957609e-01 -4.220749e-01 -3.670198e-01 -3.006660e-01 -2.254581e-01 -1.438291e-01 -5.818113e-02 2.911019e-02 1.156760e-01 1.991296e-01 2.770465e-01 3.469561e-01 4.063571e-01 4.527661e-01 4.838086e-01 4.973599e-01 4.917349e-01 4.659161e-01 4.197941e-01 3.543779e-01 2.719253e-01 1.759420e-01 7.101668e-02 -3.750662e-02 -1.439803e-01 -2.429562e-01 -3.296501e-01 -4.002910e-01 -4.523118e-01 -4.843808e-01 -4.963017e-01 -4.888271e-01 -4.634300e-01 -3.926362e-01 -3.418275e-01 -2.802180e-01 -2.100897e-01 -1.337492e-01 -5.350177e-02 2.835414e-02 1.095182e-01 1.876755e-01 2.604870e-01 3.255924e-01 3.806328e-01 4.233037e-01 4.514440e-01 4.631665e-01 4.570280e-01 4.322257e-01 3.887988e-01 3.277969e-01 2.513758e-01 1.627786e-01 6.617967e-02 -3.360599e-02 -1.315131e-01 -2.226555e-01 -3.027221e-01 -3.682769e-01 -4.169278e-01 -4.473631e-01 -4.592783e-01 -4.532290e-01 -4.304445e-01 -3.637400e-01 -3.170519e-01 -2.600854e-01 -1.949588e-01 -1.238481e-01 -4.895482e-02 2.750725e-02 1.033143e-01 1.762302e-01 2.440079e-01 3.044011e-01 3.551949e-01 3.942609e-01 4.196438e-01 4.296814e-01 4.231538e-01 3.994515e-01 3.587401e-01 3.020922e-01 2.315528e-01 1.501069e-01 6.153352e-02 -2.985005e-02 -1.195222e-01 -2.031206e-01 -2.767767e-01 -3.373716e-01 -3.826857e-01 -4.114387e-01 -4.232396e-01 -4.184724e-01 -3.981468e-01 -3.364385e-01 -2.936021e-01 -2.410103e-01 -1.806241e-01 -1.144899e-01 -4.470385e-02 2.660880e-02 9.730488e-02 1.652307e-01 2.282330e-01 2.841791e-01 3.309930e-01 3.667130e-01 3.895748e-01 3.981200e-01 3.913275e-01 3.687541e-01 3.306679e-01 2.781487e-01 2.131284e-01 1.383490e-01 5.722648e-02 -2.637230e-02 -1.084151e-01 -1.850104e-01 -2.526896e-01 -3.086244e-01 -3.507591e-01 -3.778540e-01 -3.894526e-01 -3.857954e-01 -3.677014e-01 -3.116142e-01 -2.722463e-01 -2.236230e-01 -1.675597e-01 -1.059804e-01 -4.087901e-02 2.570676e-02 9.171421e-02 1.550715e-01 2.137166e-01 2.656245e-01 3.088484e-01 3.415780e-01 3.622187e-01 3.694907e-01 3.625423e-01 3.410681e-01 3.054158e-01 2.566600e-01 1.966238e-01 1.278293e-01 5.337230e-02 -2.327389e-02 -9.850187e-02 -1.688293e-01 -2.311366e-01 -2.828534e-01 -3.220746e-01 -3.476058e-01 -3.589442e-01 -3.562145e-01 -3.400752e-01 -2.899788e-01 -2.536085e-01 -2.084371e-01 -1.561515e-01 -9.856526e-02 -3.757851e-02 2.485296e-02 8.674220e-02 1.460940e-01 2.009305e-01 2.493244e-01 2.894429e-01 3.196074e-01 3.383684e-01 3.445953e-01 3.375758e-01 3.171143e-01 2.836173e-01 2.381465e-01 1.824259e-01 1.187876e-01 5.005592e-02 -2.062610e-02 -9.000641e-02 -1.549450e-01 -2.126164e-01 -2.606702e-01 -2.973344e-01 -3.214603e-01 -3.325147e-01 -3.305319e-01 -3.160405e-01 -2.720835e-01 -2.381754e-01 -1.958546e-01 -1.467008e-01 -9.243391e-02 -3.487278e-02 2.409829e-02 8.255902e-02 1.385814e-01 1.902606e-01 2.357521e-01 2.733192e-01 3.013916e-01 3.186374e-01 3.240453e-01 3.170118e-01 2.974252e-01 2.657334e-01 2.229819e-01 1.708100e-01 1.113941e-01 4.733948e-02 -1.847516e-02 -8.308140e-02 -1.436128e-01 -1.974805e-01 -2.425129e-01 -2.770493e-01 -2.999837e-01 -3.107638e-01 -3.093566e-01 -2.961901e-01 -2.583372e-01 -2.263099e-01 -1.861762e-01 -1.394327e-01 -8.772564e-02 -3.280968e-02 2.348832e-02 7.930183e-02 1.327568e-01 1.820065e-01 2.252716e-01 2.608897e-01 2.873734e-01 3.034797e-01 3.082861e-01 3.012691e-01 2.823769e-01 2.520849e-01 2.114229e-01 1.619636e-01 1.057650e-01 4.526743e-02 -1.684806e-02 -7.782475e-02 -1.350007e-01 -1.859645e-01 -2.286808e-01 -2.615749e-01 -2.835761e-01 -2.941217e-01 -2.931313e-01 -2.809594e-01 -2.490248e-01 -2.182667e-01 -1.796133e-01 -1.345048e-01 -8.453698e-02 -3.141981e-02 2.305997e-02 7.707348e-02 1.287844e-01 1.763863e-01 2.181447e-01 2.524479e-01 2.778645e-01 2.932110e-01 2.976236e-01 2.906311e-01 2.722200e-01 2.428825e-01 2.036361e-01 1.560078e-01 1.019757e-01 4.387028e-02 -1.575863e-02 -7.429481e-02 -1.292121e-01 -1.782175e-01 -2.193668e-01 -2.511444e-01 -2.725047e-01 -2.828799e-01 -2.821594e-01 -2.706501e-01 -2.443256e-01 -2.142063e-01 -1.762995e-01 -1.320168e-01 -8.292821e-02 -3.072086e-02 2.283913e-02 7.594228e-02 1.267717e-01 1.735414e-01 2.145401e-01 2.481815e-01 2.730624e-01 2.880292e-01 2.922472e-01 2.852711e-01 2.671061e-01 2.382521e-01 1.997200e-01 1.530135e-01 1.000707e-01 4.316712e-02 -1.521291e-02 -7.252310e-02 -1.263050e-01 -1.743248e-01 -2.146841e-01 -2.458970e-01 -2.669312e-01 -2.772169e-01 -2.766288e-01 -2.654504e-01 -2.490248e-01 -2.182667e-01 -1.796133e-01 -1.345048e-01 -8.453697e-02 -3.141981e-02 2.305997e-02 7.707348e-02 1.287844e-01 1.763862e-01 2.181447e-01 2.524479e-01 2.778645e-01 2.932110e-01 2.976236e-01 2.906311e-01 2.722201e-01 2.428825e-01 2.036361e-01 1.560078e-01 1.019757e-01 4.387028e-02 -1.575863e-02 -7.429481e-02 -1.292121e-01 -1.782175e-01 -2.193668e-01 -2.511444e-01 -2.725047e-01 -2.828799e-01 -2.821594e-01 -2.706501e-01 -2.539621e-01 -2.225246e-01 -1.830821e-01 -1.371048e-01 -8.621515e-02 -3.214643e-02 2.329398e-02 7.825800e-02 1.308901e-01 1.793629e-01 2.219192e-01 2.569203e-01 2.829055e-01 2.986594e-01 3.032865e-01 2.962873e-01 2.776266e-01 2.477867e-01 2.077907e-01 1.591892e-01 1.040025e-01 4.461986e-02 -1.633818e-02 -7.617944e-02 -1.323042e-01 -1.823553e-01 -2.243393e-01 -2.567089e-01 -2.784055e-01 -2.888647e-01 -2.879930e-01 -2.761239e-01 -2.637534e-01 -2.309650e-01 -1.899563e-01 -1.422574e-01 -8.954309e-02 -3.359205e-02 2.374826e-02 8.059249e-02 1.350477e-01 1.852465e-01 2.293857e-01 2.657746e-01 2.928937e-01 3.094641e-01 3.145266e-01 3.075235e-01 2.883757e-01 2.575443e-01 2.160621e-01 1.655260e-01 1.080404e-01 4.611217e-02 -1.749586e-02 -7.993874e-02 -1.384688e-01 -1.906003e-01 -2.342413e-01 -2.677823e-01 -2.901396e-01 -3.007572e-01 -2.995767e-01 -2.869856e-01 -2.782250e-01 -2.434302e-01 -2.001039e-01 -1.498639e-01 -9.446114e-02 -3.573964e-02 2.439596e-02 8.400738e-02 1.411485e-01 1.938941e-01 2.403750e-01 2.788240e-01 3.076342e-01 3.254321e-01 3.311617e-01 3.241764e-01 3.043283e-01 2.720434e-01 2.283659e-01 1.749597e-01 1.140539e-01 4.833271e-02 -1.922659e-02 -8.554777e-02 -1.476594e-01 -2.028820e-01 -2.489767e-01 -2.842427e-01 -3.075614e-01 -3.183924e-01 -3.167333e-01 -3.030550e-01 -2.970970e-01 -2.596683e-01 -2.133144e-01 -1.597666e-01 -1.008729e-01 -3.855935e-02 2.519863e-02 8.839746e-02 1.490253e-01 2.050847e-01 2.546227e-01 2.957733e-01 3.268161e-01 3.462516e-01 3.528937e-01 3.459743e-01 3.252490e-01 2.910910e-01 2.445540e-01 1.873861e-01 1.219806e-01 5.125751e-02 -2.151755e-02 -9.295686e-02 -1.597879e-01 -2.190719e-01 -2.683752e-01 -3.058792e-01 -3.304241e-01 -3.414962e-01 -3.391726e-01 -3.240393e-01 -3.199637e-01 -2.793164e-01 -2.292858e-01 -1.717390e-01 -1.086382e-01 -4.200369e-02 2.610855e-02 9.362169e-02 1.584497e-01 2.185122e-01 2.717585e-01 3.162051e-01 3.499933e-01 3.714685e-01 3.792812e-01 3.725075e-01 3.507755e-01 3.143840e-01 2.643889e-01 2.026362e-01 1.317188e-01 5.484998e-02 -2.434238e-02 -1.020776e-01 -1.747037e-01 -2.389566e-01 -2.921625e-01 -3.323612e-01 -3.583494e-01 -3.696554e-01 -3.664639e-01 -3.495101e-01 -3.462700e-01 -3.018820e-01 -2.476096e-01 -1.854742e-01 -1.175642e-01 -4.600175e-02 2.707219e-02 9.950408e-02 1.691298e-01 2.337801e-01 2.912966e-01 3.395637e-01 3.765639e-01 4.004602e-01 4.097081e-01 4.031927e-01 3.803816e-01 3.414727e-01 2.875121e-01 2.204506e-01 1.431117e-01 5.905594e-02 -2.765467e-02 -1.127656e-01 -1.921671e-01 -2.622056e-01 -3.199233e-01 -3.631990e-01 -3.907885e-01 -4.022822e-01 -3.980038e-01 -3.788749e-01 -3.752895e-01 -3.267257e-01 -2.677582e-01 -2.005755e-01 -1.273984e-01 -5.045330e-02 2.803466e-02 1.058366e-01 1.807111e-01 2.503990e-01 3.126293e-01 3.651445e-01 4.057523e-01 4.324113e-01 4.433525e-01 4.372371e-01 4.133375e-01 3.717212e-01 3.134065e-01 2.404496e-01 1.559279e-01 6.379655e-02 -3.138160e-02 -1.248013e-01 -2.118199e-01 -2.883328e-01 -3.510588e-01 -3.977005e-01 -4.269802e-01 -4.385750e-01 -4.329827e-01 -4.113492e-01 -4.061074e-01 -3.530497e-01 -2.890768e-01 -2.165503e-01 -1.378237e-01 -5.522395e-02 2.894483e-02 1.123845e-01 1.927816e-01 2.677903e-01 3.350274e-01 3.920897e-01 4.366006e-01 4.662975e-01 4.791643e-01 4.736084e-01 4.486747e-01 4.042695e-01 3.413606e-01 2.621022e-01 1.698398e-01 6.895953e-02 -3.541848e-02 -1.378705e-01 -2.331539e-01 -3.166579e-01 -3.847435e-01 -4.349272e-01 -4.659094e-01 -4.774823e-01 -4.703545e-01 -4.459339e-01 -4.376169e-01 -3.798982e-01 -3.107857e-01 -2.328123e-01 -1.484585e-01 -6.014313e-02 2.976034e-02 1.188940e-01 2.048813e-01 2.852972e-01 3.576520e-01 4.193985e-01 4.679737e-01 5.008864e-01 5.158580e-01 5.110211e-01 4.851656e-01 4.380081e-01 3.704405e-01 2.847009e-01 1.844043e-01 7.438994e-02 -3.962543e-02 -1.515484e-01 -2.554835e-01 -3.462704e-01 -4.198863e-01 -4.736563e-01 -5.062742e-01 -5.176768e-01 -5.088192e-01 -4.814046e-01 -4.685353e-01 -4.061749e-01 -3.319964e-01 -2.486948e-01 -1.588653e-01 -6.500628e-02 3.045179e-02 1.251031e-01 2.165193e-01 3.022068e-01 3.795790e-01 4.459536e-01 4.985872e-01 5.347617e-01 5.519330e-01 5.479491e-01 5.213283e-01 4.715750e-01 3.994815e-01 3.073490e-01 1.990513e-01 7.988268e-02 -4.382764e-02 -1.652908e-01 -2.779293e-01 -3.760085e-01 -4.551074e-01 -5.123608e-01 -5.464724e-01 -5.575507e-01 -5.468271e-01 -5.163236e-01 -4.974490e-01 -4.306845e-01 -3.517472e-01 -2.634771e-01 -1.685680e-01 -6.958275e-02 3.100487e-02 1.307537e-01 2.271955e-01 3.177809e-01 3.998398e-01 4.705687e-01 5.270585e-01 5.663776e-01 5.857276e-01 5.826766e-01 5.554704e-01 5.033906e-01 4.271117e-01 3.289746e-01 2.130880e-01 8.518046e-02 -4.782104e-02 -1.784413e-01 -2.994253e-01 -4.044664e-01 -4.887493e-01 -5.492267e-01 -5.846273e-01 -5.952507e-01 -5.826205e-01 -5.490854e-01 -5.228923e-01 -4.522002e-01 -3.690578e-01 -2.764269e-01 -1.770806e-01 -7.363024e-02 3.141975e-02 1.356044e-01 2.364276e-01 3.312969e-01 4.174745e-01 4.920550e-01 5.519857e-01 5.941471e-01 6.155120e-01 6.133932e-01 5.857803e-01 5.317395e-01 4.518200e-01 3.483802e-01 2.257282e-01 8.998199e-02 -5.138470e-02 -1.902620e-01 -3.187651e-01 -4.300541e-01 -5.189471e-01 -5.822326e-01 -6.186754e-01 -6.287694e-01 -6.143254e-01 -5.780031e-01 -5.434581e-01 -4.695552e-01 -3.830016e-01 -2.868535e-01 -1.839427e-01 -7.691434e-02 3.170772e-02 1.394442e-01 2.437808e-01 3.420948e-01 4.315976e-01 5.093042e-01 5.720481e-01 6.165583e-01 6.396195e-01 6.383318e-01 6.104674e-01 5.549040e-01 4.720737e-01 3.643357e-01 2.361534e-01 9.396473e-02 -5.429920e-02 -1.999936e-01 -3.347002e-01 -4.511259e-01 -5.437787e-01 -6.093124e-01 -6.465310e-01 -6.561049e-01 -6.400981e-01 -6.014389e-01 -5.579283e-01 -4.817468e-01 -3.927865e-01 -2.941677e-01 -1.887606e-01 -7.923118e-02 3.188576e-02 1.421034e-01 2.488972e-01 3.496254e-01 4.414653e-01 5.213783e-01 5.861187e-01 6.323088e-01 6.566003e-01 6.559397e-01 6.279410e-01 5.713411e-01 4.864809e-01 3.757122e-01 2.436044e-01 9.682334e-02 -5.636865e-02 -2.069390e-01 -3.460809e-01 -4.661695e-01 -5.614855e-01 -6.285879e-01 -6.663145e-01 -6.754711e-01 -6.583113e-01 -6.179619e-01 -5.654028e-01 -4.880380e-01 -3.978325e-01 -2.979387e-01 -1.912458e-01 -8.042978e-02 3.196999e-02 1.434636e-01 2.515219e-01 3.534939e-01 4.465403e-01 5.275951e-01 5.933723e-01 6.404390e-01 6.653778e-01 6.650551e-01 6.370009e-01 5.798770e-01 4.939741e-01 3.816378e-01 2.474909e-01 9.831829e-02 -5.744399e-02 -2.105595e-01 -3.520164e-01 -4.740138e-01 -5.707113e-01 -6.386189e-01 -6.765949e-01 -6.855184e-01 -6.677453e-01 -6.265078e-01 -5.654028e-01 -4.880380e-01 -3.978325e-01 -2.979387e-01 -1.912458e-01 -8.042978e-02 3.196999e-02 1.434636e-01 2.515219e-01 3.534939e-01 4.465403e-01 5.275951e-01 5.933723e-01 6.404390e-01 6.653778e-01 6.650551e-01 6.370009e-01 5.798770e-01 4.939741e-01 3.816378e-01 2.474909e-01 9.831828e-02 -5.744399e-02 -2.105595e-01 -3.520164e-01 -4.740138e-01 -5.707113e-01 -6.386189e-01 -6.765949e-01 -6.855184e-01 -6.677453e-01 -6.265078e-01 -5.579283e-01 -4.817468e-01 -3.927865e-01 -2.941677e-01 -1.887606e-01 -7.923118e-02 3.188576e-02 1.421034e-01 2.488972e-01 3.496254e-01 4.414653e-01 5.213783e-01 5.861187e-01 6.323088e-01 6.566003e-01 6.559397e-01 6.279410e-01 5.713411e-01 4.864809e-01 3.757122e-01 2.436044e-01 9.682334e-02 -5.636865e-02 -2.069390e-01 -3.460809e-01 -4.661695e-01 -5.614855e-01 -6.285879e-01 -6.663145e-01 -6.754711e-01 -6.583113e-01 -6.179619e-01 -5.434581e-01 -4.695552e-01 -3.830016e-01 -2.868535e-01 -1.839427e-01 -7.691434e-02 3.170772e-02 1.394442e-01 2.437808e-01 3.420948e-01 4.315976e-01 5.093042e-01 5.720481e-01 6.165583e-01 6.396195e-01 6.383318e-01 6.104674e-01 5.549040e-01 4.720737e-01 3.643357e-01 2.361534e-01 9.396473e-02 -5.429920e-02 -1.999936e-01 -3.347002e-01 -4.511259e-01 -5.437787e-01 -6.093124e-01 -6.465309e-01 -6.561049e-01 -6.400981e-01 -6.014389e-01 -5.228923e-01 -4.522002e-01 -3.690578e-01 -2.764269e-01 -1.770806e-01 -7.363024e-02 3.141975e-02 1.356044e-01 2.364276e-01 3.312969e-01 4.174745e-01 4.920550e-01 5.519857e-01 5.941471e-01 6.155120e-01 6.133932e-01 5.857803e-01 5.317395e-01 4.518200e-01 3.483802e-01 2.257282e-01 8.998199e-02 -5.138470e-02 -1.902620e-01 -3.187651e-01 -4.300541e-01 -5.189471e-01 -5.822326e-01 -6.186754e-01 -6.287694e-01 -6.143254e-01 -5.780031e-01 -4.974490e-01 -4.306845e-01 -3.517472e-01 -2.634771e-01 -1.685680e-01 -6.958275e-02 3.100487e-02 1.307537e-01 2.271955e-01 3.177809e-01 3.998398e-01 4.705687e-01 5.270585e-01 5.663776e-01 5.857276e-01 5.826766e-01 5.554704e-01 5.033906e-01 4.271117e-01 3.289746e-01 2.130880e-01 8.518046e-02 -4.782104e-02 -1.784413e-01 -2.994253e-01 -4.044664e-01 -4.887493e-01 -5.492267e-01 -5.846273e-01 -5.952507e-01 -5.826205e-01 -5.490854e-01 -4.685353e-01 -4.061749e-01 -3.319964e-01 -2.486948e-01 -1.588653e-01 -6.500627e-02 3.045179e-02 1.251031e-01 2.165193e-01 3.022068e-01 3.795790e-01 4.459536e-01 4.985872e-01 5.347617e-01 5.519330e-01 5.479491e-01 5.213283e-01 4.715750e-01 3.994815e-01 3.073490e-01 1.990513e-01 7.988268e-02 -4.382764e-02 -1.652908e-01 -2.779293e-01 -3.760085e-01 -4.551074e-01 -5.123608e-01 -5.464724e-01 -5.575507e-01 -5.468271e-01 -5.163236e-01 -4.376169e-01 -3.798982e-01 -3.107857e-01 -2.328123e-01 -1.484585e-01 -6.014314e-02 2.976034e-02 1.188940e-01 2.048813e-01 2.852972e-01 3.576520e-01 4.193985e-01 4.679737e-01 5.008864e-01 5.158580e-01 5.110211e-01 4.851656e-01 4.380081e-01 3.704405e-01 2.847009e-01 1.844043e-01 7.438994e-02 -3.962543e-02 -1.515484e-01 -2.554835e-01 -3.462704e-01 -4.198863e-01 -4.736563e-01 -5.062742e-01 -5.176768e-01 -5.088192e-01 -4.814046e-01 -4.061074e-01 -3.530497e-01 -2.890768e-01 -2.165503e-01 -1.378237e-01 -5.522395e-02 2.894483e-02 1.123845e-01 1.927816e-01 2.677903e-01 3.350274e-01 3.920897e-01 4.366006e-01 4.662975e-01 4.791643e-01 4.736084e-01 4.486747e-01 4.042695e-01 3.413606e-01 2.621022e-01 1.698398e-01 6.895953e-02 -3.541848e-02 -1.378705e-01 -2.331539e-01 -3.166578e-01 -3.847435e-01 -4.349272e-01 -4.659094e-01 -4.774823e-01 -4.703545e-01 -4.459339e-01 -3.752895e-01 -3.267257e-01 -2.677582e-01 -2.005755e-01 -1.273984e-01 -5.045330e-02 2.803466e-02 1.058366e-01 1.807111e-01 2.503990e-01 3.126293e-01 3.651445e-01 4.057523e-01 4.324113e-01 4.433525e-01 4.372371e-01 4.133375e-01 3.717212e-01 3.134065e-01 2.404496e-01 1.559279e-01 6.379655e-02 -3.138160e-02 -1.248013e-01 -2.118199e-01 -2.883328e-01 -3.510588e-01 -3.977005e-01 -4.269802e-01 -4.385750e-01 -4.329827e-01 -4.113492e-01 -3.462700e-01 -3.018820e-01 -2.476096e-01 -1.854742e-01 -1.175642e-01 -4.600175e-02 2.707219e-02 9.950408e-02 1.691298e-01 2.337801e-01 2.912966e-01 3.395637e-01 3.765639e-01 4.004602e-01 4.097081e-01 4.031927e-01 3.803816e-01 3.414727e-01 2.875121e-01 2.204506e-01 1.431117e-01 5.905594e-02 -2.765468e-02 -1.127656e-01 -1.921671e-01 -2.622056e-01 -3.199233e-01 -3.631990e-01 -3.907885e-01 -4.022822e-01 -3.980038e-01 -3.788749e-01 -3.199637e-01 -2.793164e-01 -2.292858e-01 -1.717390e-01 -1.086382e-01 -4.200369e-02 2.610856e-02 9.362169e-02 1.584497e-01 2.185122e-01 2.717585e-01 3.162051e-01 3.499933e-01 3.714685e-01 3.792812e-01 3.725075e-01 3.507755e-01 3.143840e-01 2.643889e-01 2.026362e-01 1.317188e-01 5.484998e-02 -2.434238e-02 -1.020776e-01 -1.747037e-01 -2.389566e-01 -2.921625e-01 -3.323612e-01 -3.583494e-01 -3.696554e-01 -3.664639e-01 -3.495101e-01 -2.970970e-01 -2.596683e-01 -2.133144e-01 -1.597666e-01 -1.008729e-01 -3.855935e-02 2.519863e-02 8.839746e-02 1.490253e-01 2.050847e-01 2.546227e-01 2.957733e-01 3.268161e-01 3.462516e-01 3.528937e-01 3.459743e-01 3.252490e-01 2.910910e-01 2.445540e-01 1.873861e-01 1.219806e-01 5.125752e-02 -2.151755e-02 -9.295685e-02 -1.597879e-01 -2.190719e-01 -2.683752e-01 -3.058792e-01 -3.304241e-01 -3.414962e-01 -3.391726e-01 -3.240393e-01 -2.782250e-01 -2.434302e-01 -2.001039e-01 -1.498639e-01 -9.446114e-02 -3.573964e-02 2.439596e-02 8.400738e-02 1.411485e-01 1.938941e-01 2.403750e-01 2.788240e-01 3.076342e-01 3.254321e-01 3.311617e-01 3.241764e-01 3.043283e-01 2.720434e-01 2.283659e-01 1.749597e-01 1.140539e-01 4.833271e-02 -1.922659e-02 -8.554777e-02 -1.476594e-01 -2.028820e-01 -2.489767e-01 -2.842427e-01 -3.075614e-01 -3.183924e-01 -3.167333e-01 -3.030550e-01 -2.637534e-01 -2.309650e-01 -1.899563e-01 -1.422574e-01 -8.954309e-02 -3.359205e-02 2.374826e-02 8.059249e-02 1.350477e-01 1.852465e-01 2.293857e-01 2.657746e-01 2.928937e-01 3.094641e-01 3.145266e-01 3.075235e-01 2.883757e-01 2.575443e-01 2.160621e-01 1.655260e-01 1.080404e-01 4.611217e-02 -1.749586e-02 -7.993874e-02 -1.384688e-01 -1.906003e-01 -2.342413e-01 -2.677823e-01 -2.901396e-01 -3.007572e-01 -2.995767e-01 -2.869856e-01 -2.539621e-01 -2.225246e-01 -1.830821e-01 -1.371048e-01 -8.621515e-02 -3.214643e-02 2.329398e-02 7.825800e-02 1.308901e-01 1.793629e-01 2.219192e-01 2.569203e-01 2.829055e-01 2.986594e-01 3.032865e-01 2.962873e-01 2.776266e-01 2.477867e-01 2.077907e-01 1.591892e-01 1.040025e-01 4.461986e-02 -1.633818e-02 -7.617944e-02 -1.323042e-01 -1.823553e-01 -2.243393e-01 -2.567089e-01 -2.784055e-01 -2.888647e-01 -2.879930e-01 -2.761239e-01 -2.490248e-01 -2.182667e-01 -1.796133e-01 -1.345048e-01 -8.453698e-02 -3.141981e-02 2.305997e-02 7.707348e-02 1.287844e-01 1.763863e-01 2.181447e-01 2.524479e-01 2.778645e-01 2.932110e-01 2.976236e-01 2.906311e-01 2.722200e-01 2.428825e-01 2.036361e-01 1.560078e-01 1.019757e-01 4.387028e-02 -1.575863e-02 -7.429481e-02 -1.292121e-01 -1.782175e-01 -2.193668e-01 -2.511444e-01 -2.725047e-01 -2.828799e-01 -2.821594e-01 -2.706501e-01 -2.583372e-01 -2.263099e-01 -1.861762e-01 -1.394327e-01 -8.772564e-02 -3.280968e-02 2.348832e-02 7.930183e-02 1.327568e-01 1.820065e-01 2.252716e-01 2.608897e-01 2.873734e-01 3.034797e-01 3.082861e-01 3.012691e-01 2.823769e-01 2.520849e-01 2.114229e-01 1.619636e-01 1.057650e-01 4.526743e-02 -1.684806e-02 -7.782475e-02 -1.350007e-01 -1.859645e-01 -2.286808e-01 -2.615749e-01 -2.835761e-01 -2.941217e-01 -2.931313e-01 -2.809594e-01 -2.637534e-01 -2.309650e-01 -1.899563e-01 -1.422574e-01 -8.954309e-02 -3.359205e-02 2.374826e-02 8.059249e-02 1.350477e-01 1.852465e-01 2.293857e-01 2.657746e-01 2.928937e-01 3.094641e-01 3.145266e-01 3.075235e-01 2.883757e-01 2.575443e-01 2.160621e-01 1.655260e-01 1.080404e-01 4.611217e-02 -1.749586e-02 -7.993874e-02 -1.384688e-01 -1.906003e-01 -2.342413e-01 -2.677823e-01 -2.901396e-01 -3.007572e-01 -2.995767e-01 -2.869856e-01 -2.745096e-01 -2.402039e-01 -1.974557e-01 -1.478610e-01 -9.315063e-02 -3.515003e-02 2.425346e-02 8.313823e-02 1.395750e-01 1.916561e-01 2.375318e-01 2.754560e-01 3.038448e-01 3.213479e-01 3.269317e-01 3.199690e-01 3.003249e-01 2.684295e-01 2.253199e-01 1.726399e-01 1.125865e-01 4.780053e-02 -1.879077e-02 -8.416401e-02 -1.453984e-01 -1.998582e-01 -2.453387e-01 -2.801613e-01 -3.032178e-01 -3.139671e-01 -3.123970e-01 -2.989621e-01 -2.904433e-01 -2.538763e-01 -2.085464e-01 -1.561470e-01 -9.849009e-02 -3.746812e-02 2.497513e-02 8.686703e-02 1.462270e-01 2.010905e-01 2.495402e-01 2.897491e-01 3.200379e-01 3.389491e-01 3.453367e-01 3.384658e-01 3.181142e-01 2.846607e-01 2.391443e-01 1.832759e-01 1.193900e-01 5.032944e-02 -2.072872e-02 -9.048914e-02 -1.557672e-01 -2.137001e-01 -2.619132e-01 -2.986268e-01 -3.226991e-01 -3.336158e-01 -3.314384e-01 -3.167255e-01 -3.112878e-01 -2.717369e-01 -2.230209e-01 -1.669587e-01 -1.054659e-01 -4.051815e-02 2.587168e-02 9.166908e-02 1.548311e-01 2.133229e-01 2.651422e-01 3.083578e-01 3.411660e-01 3.619669e-01 3.694625e-01 3.627704e-01 3.415444e-01 3.060869e-01 2.574309e-01 1.973702e-01 1.284193e-01 5.369177e-02 -2.329720e-02 -9.888235e-02 -1.695204e-01 -2.320412e-01 -2.838442e-01 -3.230179e-01 -3.483827e-01 -3.594680e-01 -3.564405e-01 