<VTKFile type="RectilinearGrid">
<RectilinearGrid WholeExtent="0 32 0 32 0 32" GhostLevel="0">
<Piece Extent="0 32 0 32 0 32">
<CellData Scalars="p phase" Vectors="vel">
<DataArray type="Float32" Name="p">
-2.462779e-01 -2.328944e-01 -2.108849e-01 -1.812026e-01 -1.450248e-01 -1.037039e-01 -5.872246e-02 -1.165201e-02 3.588532e-02 8.225300e-02 1.258365e-01 1.650814e-01 1.985359e-01 2.248959e-01 2.430567e-01 2.521663e-01 2.516793e-01 2.414065e-01 2.215541e-01 1.927469e-01 1.560278e-01 1.128304e-01 6.492261e-02 1.432156e-02 -3.681202e-02 -8.629296e-02 -1.320322e-01 -1.721475e-01 -2.050554e-01 -2.295363e-01 -2.447722e-01 -2.503559e-01 -2.509436e-01 -2.372187e-01 -2.147301e-01 -1.844568e-01 -1.476003e-01 -1.055361e-01 -5.976762e-02 -1.188538e-02 3.647016e-02 8.364424e-02 1.280033e-01 1.679723e-01 2.020761e-01 2.289861e-01 2.475707e-01 2.569514e-01 2.565583e-01 2.461827e-01 2.260195e-01 1.966932e-01 1.592601e-01 1.151818e-01 6.626759e-02 1.458737e-02 -3.763893e-02 -8.816582e-02 -1.348485e-01 -1.757586e-01 -2.092790e-01 -2.341713e-01 -2.496120e-01 -2.552007e-01 -2.601882e-01 -2.457821e-01 -2.223412e-01 -1.908952e-01 -1.526945e-01 -1.091594e-01 -6.183416e-02 -1.234698e-02 3.762613e-02 8.639499e-02 1.322887e-01 1.736917e-01 2.090837e-01 2.370863e-01 2.565154e-01 2.664391e-01 2.662385e-01 2.556650e-01 2.348901e-01 2.045370e-01 1.656880e-01 1.198596e-01 6.894429e-02 1.511720e-02 -3.928302e-02 -9.189000e-02 -1.404473e-01 -1.829344e-01 -2.176679e-01 -2.433717e-01 -2.592131e-01 -2.648058e-01 -2.738304e-01 -2.584076e-01 -2.335537e-01 -2.003739e-01 -1.601902e-01 -1.144888e-01 -6.487339e-02 -1.302633e-02 3.932526e-02 9.044022e-02 1.385940e-01 1.821118e-01 2.194078e-01 2.490304e-01 2.697172e-01 2.804567e-01 2.805554e-01 2.697039e-01 2.480366e-01 2.161725e-01 1.752306e-01 1.268089e-01 7.292326e-02 1.590695e-02 -4.172295e-02 -9.741820e-02 -1.487550e-01 -1.935748e-01 -2.300964e-01 -2.569898e-01 -2.734098e-01 -2.789939e-01 -2.915805e-01 -2.748147e-01 -2.481087e-01 -2.126669e-01 -1.699045e-01 -1.213923e-01 -6.880951e-02 -1.390686e-02 4.152432e-02 9.567893e-02 1.467648e-01 1.930324e-01 2.328112e-01 2.645551e-01 2.868991e-01 2.987258e-01 2.992415e-01 2.880538e-01 2.652437e-01 2.314211e-01 1.877504e-01 1.359348e-01 7.815330e-02 1.694928e-02 -4.492190e-02 -1.046692e-01 -1.596458e-01 -2.075109e-01 -2.463556e-01 -2.747816e-01 -2.919320e-01 -2.974791e-01 -3.130220e-01 -2.946034e-01 -2.656400e-01 -2.274569e-01 -1.815818e-01 -1.296858e-01 -7.353694e-02 -1.496542e-02 4.416341e-02 1.019708e-01 1.565862e-01 2.061726e-01 2.489590e-01 2.832858e-01 3.076627e-01 3.208419e-01 3.219035e-01 3.103481e-01 2.861860e-01 2.500097e-01 2.030339e-01 1.470886e-01 8.455335e-02 1.823216e-02 -4.882239e-02 -1.135162e-01 -1.729253e-01 -2.244843e-01 -2.661297e-01 -2.963840e-01 -3.143822e-01 -3.198457e-01 -3.375916e-01 -3.172388e-01 -2.856618e-01 -2.443259e-01 -1.948869e-01 -1.391288e-01 -7.891809e-02 -1.617160e-02 4.716496e-02 1.091331e-01 1.677770e-01 2.211627e-01 2.674072e-01 3.047213e-01 3.314701e-01 3.462520e-01 3.479964e-01 3.360728e-01 3.104005e-01 2.715436e-01 2.207690e-01 1.600506e-01 9.200241e-02 1.973680e-02 -5.334003e-02 -1.237733e-01 -1.883105e-01 -2.441229e-01 -2.889696e-01 -3.212876e-01 -3.402103e-01 -3.455252e-01 -3.645633e-01 -3.420381e-01 -3.075597e-01 -2.627490e-01 -2.094015e-01 -1.494224e-01 -8.478200e-02 -1.748734e-02 5.043321e-02 1.169392e-01 1.799863e-01 2.375390e-01 2.875943e-01 3.282221e-01 3.576270e-01 3.742342e-01 3.767997e-01 3.645383e-01 3.372579e-01 2.954797e-01 2.405208e-01 1.745116e-01 1.003285e-01 2.143524e-02 -5.835736e-02 -1.351812e-01 -2.054094e-01 -2.659167e-01 -3.142673e-01 -3.488108e-01 -3.686900e-01 -3.737765e-01 -3.930411e-01 -3.681671e-01 -3.305894e-01 -2.820948e-01 -2.246251e-01 -1.602103e-01 -9.092527e-02 -1.886707e-02 5.385474e-02 1.251194e-01 1.927950e-01 2.547437e-01 3.088397e-01 3.530056e-01 3.852751e-01 4.038855e-01 4.074007e-01 3.948602e-01 3.659400e-01 3.211034e-01 2.617109e-01 1.900558e-01 1.092984e-01 2.328743e-02 -6.371905e-02 -1.473961e-01 -2.237049e-01 -2.891985e-01 -3.412359e-01 -3.780827e-01 -3.989040e-01 -4.036747e-01 -4.219670e-01 -3.946500e-01 -3.538876e-01 -3.016359e-01 -2.399841e-01 -1.710852e-01 -9.711586e-02 -2.025857e-02 5.730070e-02 1.333658e-01 2.057221e-01 2.721331e-01 3.303520e-01 3.781535e-01 4.133969e-01 4.341232e-01 4.386922e-01 4.259522e-01 3.954303e-01 3.475164e-01 2.836046e-01 2.061508e-01 1.186101e-01 2.523820e-02 -6.923045e-02 -1.599840e-01 -2.425470e-01 -3.131367e-01 -3.689043e-01 -4.080397e-01 -4.297454e-01 -4.341162e-01 -4.501489e-01 -4.203971e-01 -3.764970e-01 -3.205710e-01 -2.548497e-01 -1.816025e-01 -1.031007e-01 -2.160468e-02 6.063087e-02 1.413423e-01 2.182400e-01 2.889965e-01 3.512510e-01 4.026362e-01 4.408401e-01 4.637082e-01 4.693925e-01 4.565425e-01 4.245251e-01 3.736436e-01 3.053140e-01 2.221469e-01 1.278911e-01 2.721483e-02 -7.466100e-02 -1.724261e-01 -2.611610e-01 -3.367463e-01 -3.961328e-01 -4.374465e-01 -4.599416e-01 -4.638450e-01 -4.763128e-01 -4.442529e-01 -3.974100e-01 -3.380610e-01 -2.685661e-01 -1.912998e-01 -1.086169e-01 -2.284594e-02 6.369977e-02 1.486989e-01 2.297970e-01 3.045870e-01 3.706054e-01 4.253552e-01 4.663646e-01 4.912938e-01 4.980942e-01 4.852195e-01 4.518740e-01 3.982670e-01 3.258240e-01 2.372953e-01 1.367074e-01 2.912612e-02 -7.975418e-02 -1.841376e-01 -2.786748e-01 -3.589255e-01 -4.216566e-01 -4.649451e-01 -4.881072e-01 -4.915071e-01 -4.991776e-01 -4.650636e-01 -4.156262e-01 -3.532770e-01 -2.804880e-01 -1.997230e-01 -1.134069e-01 -2.392402e-02 6.636465e-02 1.550913e-01 2.398487e-01 3.181634e-01 3.874855e-01 4.452058e-01 4.887128e-01 5.155019e-01 5.233433e-01 5.105106e-01 4.760551e-01 4.200921e-01 3.440460e-01 2.507856e-01 1.445833e-01 3.086461e-02 -8.424400e-02 -1.945024e-01 -2.941701e-01 -3.785198e-01 -4.441602e-01 -4.891347e-01 -5.128261e-01 -5.157304e-01 -5.175478e-01 -4.817589e-01 -4.302219e-01 -3.654566e-01 -2.900236e-01 -2.064567e-01 -1.172351e-01 -2.478568e-02 6.849471e-02 1.602035e-01 2.478935e-01 3.290406e-01 4.010271e-01 4.611548e-01 5.067002e-01 5.350242e-01 5.437477e-01 5.309937e-01 4.956826e-01 4.378461e-01 3.589010e-01 2.618074e-01 1.510372e-01 3.231337e-02 -8.787666e-02 -2.029208e-01 -3.067529e-01 -3.944107e-01 -4.623780e-01 -5.086786e-01 -5.327577e-01 -5.352252e-01 -5.304127e-01 -4.934378e-01 -4.404227e-01 -3.739626e-01 -2.966793e-01 -2.111548e-01 -1.199056e-01 -2.538674e-02 6.998084e-02 1.637715e-01 2.535117e-01 3.366427e-01 4.105006e-01 4.723257e-01 5.193156e-01 5.487366e-01 5.581029e-01 5.454288e-01 5.095389e-01 4.504020e-01 3.694254e-01 2.696305e-01 1.556297e-01 3.335857e-02 -9.043405e-02 -2.088669e-01 -3.156390e-01 -4.056211e-01 -4.752115e-01 -5.224246e-01 -5.467544e-01 -5.488953e-01 -5.370382e-01 -4.994484e-01 -4.456696e-01 -3.783357e-01 -3.001000e-01 -2.135689e-01 -1.212776e-01 -2.569553e-02 7.074448e-02 1.656054e-01 2.564003e-01 3.405532e-01 4.153767e-01 4.780796e-01 5.258192e-01 5.558123e-01 5.655178e-01 5.528930e-01 5.167120e-01 4.569094e-01 3.748865e-01 2.736951e-01 1.580197e-01 3.390747e-02 -9.175551e-02 -2.119461e-01 -3.202404e-01 -4.114219e-01 -4.818458e-01 -5.295233e-01 -5.539753e-01 -5.559412e-01 -5.370382e-01 -4.994484e-01 -4.456696e-01 -3.783357e-01 -3.001000e-01 -2.135689e-01 -1.212776e-01 -2.569553e-02 7.074448e-02 1.656054e-01 2.564003e-01 3.405532e-01 4.153767e-01 4.780796e-01 5.258192e-01 5.558123e-01 5.655178e-01 5.528930e-01 5.167120e-01 4.569094e-01 3.748865e-01 2.736951e-01 1.580197e-01 3.390747e-02 -9.175551e-02 -2.119461e-01 -3.202404e-01 -4.114219e-01 -4.818458e-01 -5.295233e-01 -5.539753e-01 -5.559412e-01 -5.304127e-01 -4.934378e-01 -4.404227e-01 -3.739626e-01 -2.966793e-01 -2.111548e-01 -1.199056e-01 -2.538674e-02 6.998084e-02 1.637715e-01 2.535117e-01 3.366427e-01 4.105006e-01 4.723257e-01 5.193156e-01 5.487366e-01 5.581029e-01 5.454288e-01 5.095389e-01 4.504020e-01 3.694254e-01 2.696305e-01 1.556297e-01 3.335858e-02 -9.043405e-02 -2.088669e-01 -3.156390e-01 -4.056211e-01 -4.752115e-01 -5.224246e-01 -5.467544e-01 -5.488953e-01 -5.175478e-01 -4.817589e-01 -4.302219e-01 -3.654566e-01 -2.900236e-01 -2.064567e-01 -1.172351e-01 -2.478568e-02 6.849471e-02 1.602035e-01 2.478935e-01 3.290406e-01 4.010271e-01 4.611548e-01 5.067002e-01 5.350241e-01 5.437477e-01 5.309937e-01 4.956826e-01 4.378461e-01 3.589011e-01 2.618074e-01 1.510372e-01 3.231337e-02 -8.787666e-02 -2.029208e-01 -3.067529e-01 -3.944107e-01 -4.623780e-01 -5.086786e-01 -5.327577e-01 -5.352252e-01 -4.991776e-01 -4.650636e-01 -4.156262e-01 -3.532770e-01 -2.804880e-01 -1.997230e-01 -1.134069e-01 -2.392402e-02 6.636465e-02 1.550913e-01 2.398487e-01 3.181634e-01 3.874855e-01 4.452058e-01 4.887128e-01 5.155019e-01 5.233433e-01 5.105106e-01 4.760551e-01 4.200921e-01 3.440460e-01 2.507856e-01 1.445833e-01 3.086461e-02 -8.424400e-02 -1.945024e-01 -2.941701e-01 -3.785198e-01 -4.441602e-01 -4.891347e-01 -5.128261e-01 -5.157304e-01 -4.763128e-01 -4.442529e-01 -3.974100e-01 -3.380610e-01 -2.685661e-01 -1.912998e-01 -1.086169e-01 -2.284594e-02 6.369977e-02 1.486989e-01 2.297970e-01 3.045870e-01 3.706054e-01 4.253552e-01 4.663646e-01 4.912938e-01 4.980942e-01 4.852195e-01 4.518740e-01 3.982670e-01 3.258240e-01 2.372953e-01 1.367074e-01 2.912612e-02 -7.975418e-02 -1.841376e-01 -2.786748e-01 -3.589256e-01 -4.216566e-01 -4.649451e-01 -4.881072e-01 -4.915071e-01 -4.501489e-01 -4.203971e-01 -3.764970e-01 -3.205710e-01 -2.548497e-01 -1.816025e-01 -1.031007e-01 -2.160468e-02 6.063087e-02 1.413423e-01 2.182400e-01 2.889965e-01 3.512510e-01 4.026362e-01 4.408401e-01 4.637082e-01 4.693925e-01 4.565425e-01 4.245251e-01 3.736436e-01 3.053140e-01 2.221469e-01 1.278911e-01 2.721483e-02 -7.466100e-02 -1.724261e-01 -2.611610e-01 -3.367463e-01 -3.961328e-01 -4.374465e-01 -4.599416e-01 -4.638450e-01 -4.219670e-01 -3.946500e-01 -3.538876e-01 -3.016359e-01 -2.399841e-01 -1.710852e-01 -9.711586e-02 -2.025857e-02 5.730070e-02 1.333658e-01 2.057221e-01 2.721331e-01 3.303520e-01 3.781535e-01 4.133969e-01 4.341232e-01 4.386922e-01 4.259522e-01 3.954303e-01 3.475164e-01 2.836046e-01 2.061508e-01 1.186101e-01 2.523820e-02 -6.923045e-02 -1.599840e-01 -2.425470e-01 -3.131367e-01 -3.689043e-01 -4.080397e-01 -4.297454e-01 -4.341162e-01 -3.930411e-01 -3.681671e-01 -3.305894e-01 -2.820948e-01 -2.246251e-01 -1.602103e-01 -9.092527e-02 -1.886707e-02 5.385474e-02 1.251194e-01 1.927950e-01 2.547437e-01 3.088397e-01 3.530056e-01 3.852751e-01 4.038855e-01 4.074007e-01 3.948602e-01 3.659400e-01 3.211034e-01 2.617109e-01 1.900558e-01 1.092984e-01 2.328743e-02 -6.371905e-02 -1.473961e-01 -2.237049e-01 -2.891985e-01 -3.412359e-01 -3.780827e-01 -3.989040e-01 -4.036747e-01 -3.645633e-01 -3.420381e-01 -3.075597e-01 -2.627490e-01 -2.094015e-01 -1.494224e-01 -8.478200e-02 -1.748734e-02 5.043321e-02 1.169392e-01 1.799863e-01 2.375390e-01 2.875943e-01 3.282221e-01 3.576270e-01 3.742342e-01 3.767997e-01 3.645383e-01 3.372579e-01 2.954797e-01 2.405208e-01 1.745116e-01 1.003285e-01 2.143523e-02 -5.835736e-02 -1.351812e-01 -2.054094e-01 -2.659167e-01 -3.142673e-01 -3.488108e-01 -3.686900e-01 -3.737765e-01 -3.375916e-01 -3.172388e-01 -2.856618e-01 -2.443259e-01 -1.948869e-01 -1.391288e-01 -7.891809e-02 -1.617160e-02 4.716496e-02 1.091331e-01 1.677770e-01 2.211627e-01 2.674072e-01 3.047213e-01 3.314701e-01 3.462520e-01 3.479964e-01 3.360728e-01 3.104005e-01 2.715436e-01 2.207690e-01 1.600506e-01 9.200241e-02 1.973680e-02 -5.334004e-02 -1.237733e-01 -1.883105e-01 -2.441229e-01 -2.889696e-01 -3.212876e-01 -3.402103e-01 -3.455252e-01 -3.130220e-01 -2.946034e-01 -2.656400e-01 -2.274569e-01 -1.815818e-01 -1.296858e-01 -7.353694e-02 -1.496542e-02 4.416341e-02 1.019708e-01 1.565862e-01 2.061725e-01 2.489590e-01 2.832858e-01 3.076627e-01 3.208419e-01 3.219035e-01 3.103481e-01 2.861860e-01 2.500097e-01 2.030339e-01 1.470886e-01 8.455335e-02 1.823215e-02 -4.882239e-02 -1.135162e-01 -1.729253e-01 -2.244843e-01 -2.661297e-01 -2.963840e-01 -3.143822e-01 -3.198457e-01 -2.915805e-01 -2.748147e-01 -2.481087e-01 -2.126669e-01 -1.699045e-01 -1.213923e-01 -6.880951e-02 -1.390685e-02 4.152432e-02 9.567894e-02 1.467648e-01 1.930324e-01 2.328112e-01 2.645551e-01 2.868991e-01 2.987258e-01 2.992415e-01 2.880538e-01 2.652437e-01 2.314211e-01 1.877504e-01 1.359348e-01 7.815330e-02 1.694928e-02 -4.492190e-02 -1.046692e-01 -1.596458e-01 -2.075109e-01 -2.463556e-01 -2.747816e-01 -2.919320e-01 -2.974791e-01 -2.738304e-01 -2.584076e-01 -2.335537e-01 -2.003739e-01 -1.601902e-01 -1.144888e-01 -6.487339e-02 -1.302633e-02 3.932526e-02 9.044022e-02 1.385940e-01 1.821118e-01 2.194078e-01 2.490304e-01 2.697172e-01 2.804567e-01 2.805554e-01 2.697039e-01 2.480366e-01 2.161725e-01 1.752306e-01 1.268089e-01 7.292326e-02 1.590695e-02 -4.172295e-02 -9.741820e-02 -1.487550e-01 -1.935748e-01 -2.300964e-01 -2.569898e-01 -2.734098e-01 -2.789939e-01 -2.601882e-01 -2.457821e-01 -2.223412e-01 -1.908952e-01 -1.526945e-01 -1.091594e-01 -6.183416e-02 -1.234698e-02 3.762613e-02 8.639499e-02 1.322887e-01 1.736917e-01 2.090837e-01 2.370863e-01 2.565154e-01 2.664391e-01 2.662385e-01 2.556650e-01 2.348901e-01 2.045370e-01 1.656880e-01 1.198596e-01 6.894429e-02 1.511720e-02 -3.928302e-02 -9.189000e-02 -1.404473e-01 -1.829344e-01 -2.176679e-01 -2.433717e-01 -2.592131e-01 -2.648058e-01 -2.509436e-01 -2.372187e-01 -2.147301e-01 -1.844568e-01 -1.476003e-01 -1.055361e-01 -5.976761e-02 -1.188538e-02 3.647016e-02 8.364424e-02 1.280033e-01 1.679723e-01 2.020761e-01 2.289861e-01 2.475707e-01 2.569514e-01 2.565583e-01 2.461827e-01 2.260195e-01 1.966932e-01 1.592601e-01 1.151818e-01 6.626759e-02 1.458737e-02 -3.763893e-02 -8.816582e-02 -1.348485e-01 -1.757586e-01 -2.092790e-01 -2.341713e-01 -2.496120e-01 -2.552007e-01 -2.462779e-01 -2.328944e-01 -2.108849e-01 -1.812026e-01 -1.450248e-01 -1.037038e-01 -5.872246e-02 -1.165201e-02 3.588532e-02 8.225300e-02 1.258365e-01 1.650814e-01 1.985359e-01 2.248959e-01 2.430567e-01 2.521663e-01 2.516793e-01 2.414065e-01 2.215541e-01 1.927469e-01 1.560277e-01 1.128304e-01 6.492261e-02 1.432156e-02 -3.681202e-02 -8.629296e-02 -1.320322e-01 -1.721475e-01 -2.050554e-01 -2.295363e-01 -2.447722e-01 -2.503559e-01 -2.509436e-01 -2.372187e-01 -2.147301e-01 -1.844568e-01 -1.476003e-01 -1.055361e-01 -5.976762e-02 -1.188538e-02 3.647016e-02 8.364424e-02 1.280033e-01 1.679723e-01 2.020761e-01 2.289861e-01 2.475707e-01 2.569514e-01 2.565583e-01 2.461827e-01 2.260195e-01 1.966932e-01 1.592601e-01 1.151818e-01 6.626759e-02 1.458737e-02 -3.763893e-02 -8.816582e-02 -1.348485e-01 -1.757586e-01 -2.092790e-01 -2.341713e-01 -2.496120e-01 -2.552007e-01 -2.558596e-01 -2.417667e-01 -2.187679e-01 -1.878691e-01 -1.502982e-01 -1.074542e-01 -6.086172e-02 -1.213080e-02 3.707990e-02 8.509751e-02 1.302693e-01 1.709990e-01 2.057882e-01 2.332815e-01 2.523196e-01 2.619949e-01 2.617106e-01 2.512358e-01 2.307520e-01 2.008820e-01 1.626952e-01 1.176825e-01 6.769760e-02 1.486755e-02 -3.852330e-02 -9.016376e-02 -1.378485e-01 -1.795992e-01 -2.137636e-01 -2.390835e-01 -2.547313e-01 -2.603152e-01 -2.656083e-01 -2.507801e-01 -2.267654e-01 -1.946248e-01 -1.556375e-01 -1.112492e-01 -6.302629e-02 -1.261664e-02 3.828560e-02 8.797224e-02 1.347531e-01 1.769909e-01 2.131403e-01 2.417944e-01 2.617372e-01 2.720038e-01 2.719429e-01 2.612786e-01 2.401642e-01 2.092181e-01 1.695352e-01 1.226640e-01 7.054739e-02 1.542656e-02 -4.028458e-02 -9.414278e-02 -1.438212e-01 -1.872418e-01 -2.226821e-01 -2.488456e-01 -2.648976e-01 -2.704646e-01 -2.800146e-01 -2.640857e-01 -2.385605e-01 -2.045807e-01 -1.635014e-01 -1.168363e-01 -6.621259e-02 -1.333249e-02 4.005900e-02 9.220302e-02 1.413558e-01 1.858203e-01 2.239832e-01 2.543613e-01 2.756549e-01 2.868126e-01 2.871005e-01 2.761736e-01 2.541402e-01 2.216096e-01 1.797121e-01 1.300814e-01 7.479337e-02 1.626120e-02 -4.290561e-02 -1.000643e-01 -1.527048e-01 -1.986000e-01 -2.359229e-01 -2.633226e-01 -2.799560e-01 -2.854801e-01 -2.987948e-01 -2.814061e-01 -2.538953e-01 -2.175108e-01 -1.737060e-01 -1.240825e-01 -7.034427e-02 -1.426189e-02 4.235608e-02 9.768773e-02 1.499219e-01 1.972860e-01 2.380799e-01 2.707210e-01 2.938002e-01 3.061507e-01 3.069273e-01 2.956895e-01 2.724816e-01 2.378956e-01 1.931048e-01 1.398530e-01 8.039224e-02 1.736549e-02 -4.635506e-02 -1.078585e-01 -1.643895e-01 -2.135225e-01 -2.532947e-01 -2.822866e-01 -2.996493e-01 -3.050851e-01 -3.215345e-01 -3.023410e-01 -2.724011e-01 -2.330942e-01 -1.859923e-01 -1.328010e-01 -7.531419e-02 -1.538148e-02 4.511577e-02 1.042835e-01 1.602330e-01 2.111036e-01 2.550924e-01 2.904976e-01 3.157761e-01 3.296187e-01 3.310389e-01 3.194733e-01 2.948796e-01 2.578211e-01 2.095173e-01 1.518446e-01 8.727169e-02 1.872903e-02 -5.058115e-02 -1.174107e-01 -1.786971e-01 -2.317691e-01 -2.744989e-01 -3.053887e-01 -3.235904e-01 -3.288700e-01 -3.476644e-01 -3.263466e-01 -2.935828e-01 -2.509039e-01 -2.000174e-01 -1.427455e-01 -8.098132e-02 -1.666023e-02 4.825831e-02 1.118028e-01 1.720009e-01 2.268950e-01 2.745677e-01 3.131815e-01 3.410382e-01 3.566602e-01 3.588914e-01 3.470162e-01 3.208809e-01 2.810043e-01 2.286514e-01 1.658482e-01 9.531847e-02 2.033501e-02 -5.550373e-02 -1.285443e-01 -1.953571e-01 -2.529803e-01 -2.990969e-01 -3.321257e-01 -3.512308e-01 -3.562636e-01 -3.764379e-01 -3.527195e-01 -3.168062e-01 -2.703976e-01 -2.153488e-01 -1.536068e-01 -8.716885e-02 -1.805872e-02 5.168465e-02 1.200112e-01 1.848630e-01 2.441814e-01 2.959266e-01 3.381140e-01 3.688734e-01 3.865362e-01 3.897505e-01 3.776196e-01 3.498520e-01 3.069026e-01 2.500756e-01 1.815594e-01 1.043647e-01 2.215735e-02 -6.100593e-02 -1.410024e-01 -2.139793e-01 -2.766456e-01 -3.264758e-01 -3.618066e-01 -3.818298e-01 -3.865066e-01 -4.069190e-01 -3.805878e-01 -3.412935e-01 -2.909157e-01 -2.314638e-01 -1.650128e-01 -9.366443e-02 -1.952926e-02 5.527676e-02 1.286278e-01 1.983821e-01 2.623807e-01 3.184591e-01 3.644789e-01 3.983866e-01 4.183061e-01 4.226671e-01 4.103660e-01 3.809471e-01 3.347797e-01 2.731968e-01 1.985540e-01 1.141739e-01 2.415736e-02 -6.692683e-02 -1.544306e-01 -2.340308e-01 -3.020755e-01 -3.558200e-01 -3.935255e-01 -4.144310e-01 -4.186333e-01 -4.379847e-01 -4.089177e-01 -3.661317e-01 -3.116903e-01 -2.477578e-01 -1.765348e-01 -1.002236e-01 -2.101646e-02 5.889971e-02 1.373294e-01 2.120529e-01 2.808154e-01 3.413309e-01 3.913068e-01 4.285023e-01 4.508240e-01 4.564681e-01 4.441041e-01 4.130889e-01 3.636848e-01 2.972384e-01 2.162707e-01 1.244295e-01 2.627991e-02 -7.305718e-02 -1.683665e-01 -2.548196e-01 -3.283849e-01 -3.860957e-01 -4.261504e-01 -4.478568e-01 -4.514706e-01 -4.683518e-01 -4.365405e-01 -3.902978e-01 -3.318672e-01 -2.635618e-01 -1.877004e-01 -1.065776e-01 -2.245903e-02 6.240580e-02 1.457605e-01 2.253161e-01 2.987309e-01 3.636047e-01 4.174979e-01 4.579857e-01 4.827579e-01 4.897717e-01 4.774588e-01 4.449728e-01 3.924506e-01 3.212359e-01 2.340043e-01 1.347289e-01 2.844972e-02 -7.914114e-02 -1.822397e-01 -2.754971e-01 -3.544971e-01 -4.160600e-01 -4.583378e-01 -4.807275e-01 -4.836618e-01 -4.966317e-01 -4.622034e-01 -4.127040e-01 -3.505444e-01 -2.781730e-01 -1.980147e-01 -1.124451e-01 -2.379256e-02 6.564108e-02 1.535488e-01 2.375833e-01 3.153275e-01 3.842799e-01 4.418668e-01 4.854923e-01 5.126399e-01 5.210356e-01 5.088751e-01 4.751045e-01 4.197239e-01 3.440580e-01 2.509194e-01 1.445889e-01 3.056891e-02 -8.488603e-02 -1.953898e-01 -2.950825e-01 -3.791785e-01 -4.443031e-01 -4.885818e-01 -5.115157e-01 -5.137225e-01 -5.214128e-01 -4.846434e-01 -4.322617e-01 -3.668239e-01 -2.908948e-01 -2.069887e-01 -1.175485e-01 -2.495335e-02 6.845366e-02 1.603259e-01 2.482696e-01 3.298061e-01 4.023493e-01 4.632101e-01 5.096432e-01 5.389488e-01 5.486430e-01 5.367036e-01 5.018796e-01 4.440349e-01 3.644630e-01 2.660887e-01 1.534659e-01 3.251754e-02 -8.998137e-02 -2.071040e-01 -3.125191e-01 -4.011080e-01 -4.693304e-01 -5.153030e-01 -5.386371e-01 -5.401295e-01 -5.413667e-01 -5.026803e-01 -4.479589e-01 -3.798749e-01 -3.010846e-01 -2.141724e-01 -1.216327e-01 -2.588284e-02 7.070396e-02 1.657521e-01 2.568337e-01 3.414237e-01 4.168700e-01 4.803931e-01 5.291275e-01 5.602240e-01 5.710258e-01 5.593271e-01 5.237081e-01 4.639108e-01 3.811930e-01 2.785629e-01 1.607940e-01 3.415940e-02 -9.412544e-02 -2.166740e-01 -3.267572e-01 -4.189818e-01 -4.896795e-01 -5.369721e-01 -5.605735e-01 -5.614372e-01 -5.553633e-01 -5.153156e-01 -4.589434e-01 -3.889997e-01 -3.082045e-01 -2.191897e-01 -1.244847e-01 -2.653208e-02 7.227512e-02 1.695427e-01 2.628206e-01 3.495525e-01 4.270420e-01 4.924467e-01 5.428175e-01 5.751996e-01 5.868123e-01 5.753176e-01 5.391714e-01 4.780241e-01 3.931017e-01 2.874659e-01 1.660421e-01 3.535553e-02 -9.705512e-02 -2.234662e-01 -3.368581e-01 -4.316416e-01 -5.040634e-01 -5.522560e-01 -5.760140e-01 -5.764071e-01 -5.625788e-01 -5.218240e-01 -4.645977e-01 -3.936944e-01 -3.118661e-01 -2.217693e-01 -1.259509e-01 -2.686591e-02 7.308281e-02 1.714920e-01 2.659006e-01 3.537369e-01 4.322819e-01 4.986613e-01 5.498829e-01 5.829373e-01 5.949794e-01 5.836017e-01 5.471943e-01 4.853583e-01 3.993011e-01 2.921095e-01 1.687856e-01 3.598788e-02 -9.857319e-02 -2.269953e-01 -3.421049e-01 -4.382099e-01 -5.115156e-01 -5.601631e-01 -5.839912e-01 -5.841320e-01 -5.625788e-01 -5.218240e-01 -4.645977e-01 -3.936944e-01 -3.118661e-01 -2.217693e-01 -1.259509e-01 -2.686591e-02 7.308280e-02 1.714920e-01 2.659006e-01 3.537369e-01 4.322819e-01 4.986613e-01 5.498829e-01 5.829373e-01 5.949794e-01 5.836017e-01 5.471943e-01 4.853583e-01 3.993011e-01 2.921095e-01 1.687856e-01 3.598788e-02 -9.857319e-02 -2.269953e-01 -3.421049e-01 -4.382099e-01 -5.115156e-01 -5.601631e-01 -5.839912e-01 -5.841320e-01 -5.553633e-01 -5.153156e-01 -4.589434e-01 -3.889997e-01 -3.082045e-01 -2.191897e-01 -1.244847e-01 -2.653208e-02 7.227512e-02 1.695427e-01 2.628206e-01 3.495525e-01 4.270420e-01 4.924467e-01 5.428175e-01 5.751996e-01 5.868123e-01 5.753176e-01 5.391714e-01 4.780241e-01 3.931017e-01 2.874659e-01 1.660421e-01 3.535553e-02 -9.705512e-02 -2.234662e-01 -3.368581e-01 -4.316416e-01 -5.040634e-01 -5.522560e-01 -5.760140e-01 -5.764071e-01 -5.413667e-01 -5.026803e-01 -4.479589e-01 -3.798749e-01 -3.010846e-01 -2.141724e-01 -1.216327e-01 -2.588284e-02 7.070396e-02 1.657521e-01 2.568337e-01 3.414237e-01 4.168700e-01 4.803931e-01 5.291275e-01 5.602240e-01 5.710258e-01 5.593271e-01 5.237081e-01 4.639108e-01 3.811930e-01 2.785629e-01 1.607940e-01 3.415941e-02 -9.412544e-02 -2.166740e-01 -3.267572e-01 -4.189818e-01 -4.896795e-01 -5.369721e-01 -5.605735e-01 -5.614372e-01 -5.214128e-01 -4.846434e-01 -4.322617e-01 -3.668239e-01 -2.908948e-01 -2.069887e-01 -1.175485e-01 -2.495335e-02 6.845366e-02 1.603259e-01 2.482696e-01 3.298061e-01 4.023493e-01 4.632101e-01 5.096432e-01 5.389488e-01 5.486430e-01 5.367036e-01 5.018796e-01 4.440349e-01 3.644630e-01 2.660887e-01 1.534659e-01 3.251754e-02 -8.998137e-02 -2.071040e-01 -3.125191e-01 -4.011080e-01 -4.693304e-01 -5.153030e-01 -5.386371e-01 -5.401295e-01 -4.966317e-01 -4.622034e-01 -4.127040e-01 -3.505444e-01 -2.781730e-01 -1.980147e-01 -1.124451e-01 -2.379256e-02 6.564107e-02 1.535488e-01 2.375833e-01 3.153275e-01 3.842799e-01 4.418668e-01 4.854923e-01 5.126399e-01 5.210356e-01 5.088751e-01 4.751045e-01 4.197239e-01 3.440580e-01 2.509194e-01 1.445889e-01 3.056891e-02 -8.488603e-02 -1.953898e-01 -2.950825e-01 -3.791785e-01 -4.443031e-01 -4.885818e-01 -5.115157e-01 -5.137225e-01 -4.683518e-01 -4.365405e-01 -3.902978e-01 -3.318672e-01 -2.635618e-01 -1.877004e-01 -1.065776e-01 -2.245903e-02 6.240580e-02 1.457605e-01 2.253161e-01 2.987309e-01 3.636047e-01 4.174979e-01 4.579857e-01 4.827579e-01 4.897717e-01 4.774588e-01 4.449728e-01 3.924506e-01 3.212359e-01 2.340043e-01 1.347289e-01 2.844972e-02 -7.914114e-02 -1.822397e-01 -2.754971e-01 -3.544971e-01 -4.160600e-01 -4.583378e-01 -4.807275e-01 -4.836618e-01 -4.379847e-01 -4.089177e-01 -3.661317e-01 -3.116903e-01 -2.477578e-01 -1.765348e-01 -1.002236e-01 -2.101646e-02 5.889970e-02 1.373294e-01 2.120529e-01 2.808154e-01 3.413309e-01 3.913068e-01 4.285022e-01 4.508240e-01 4.564681e-01 4.441041e-01 4.130889e-01 3.636848e-01 2.972384e-01 2.162707e-01 1.244295e-01 2.627991e-02 -7.305718e-02 -1.683665e-01 -2.548196e-01 -3.283849e-01 -3.860957e-01 -4.261504e-01 -4.478568e-01 -4.514706e-01 -4.069190e-01 -3.805878e-01 -3.412935e-01 -2.909157e-01 -2.314638e-01 -1.650128e-01 -9.366443e-02 -1.952926e-02 5.527676e-02 1.286278e-01 1.983821e-01 2.623807e-01 3.184591e-01 3.644789e-01 3.983866e-01 4.183061e-01 4.226671e-01 4.103660e-01 3.809471e-01 3.347797e-01 2.731968e-01 1.985540e-01 1.141739e-01 2.415736e-02 -6.692683e-02 -1.544306e-01 -2.340308e-01 -3.020755e-01 -3.558200e-01 -3.935255e-01 -4.144310e-01 -4.186333e-01 -3.764379e-01 -3.527195e-01 -3.168062e-01 -2.703976e-01 -2.153488e-01 -1.536068e-01 -8.716885e-02 -1.805872e-02 5.168465e-02 1.200112e-01 1.848630e-01 2.441814e-01 2.959266e-01 3.381140e-01 3.688734e-01 3.865362e-01 3.897505e-01 3.776196e-01 3.498520e-01 3.069026e-01 2.500756e-01 1.815594e-01 1.043647e-01 2.215735e-02 -6.100594e-02 -1.410024e-01 -2.139793e-01 -2.766456e-01 -3.264758e-01 -3.618066e-01 -3.818298e-01 -3.865066e-01 -3.476644e-01 -3.263466e-01 -2.935828e-01 -2.509039e-01 -2.000174e-01 -1.427455e-01 -8.098132e-02 -1.666023e-02 4.825831e-02 1.118028e-01 1.720009e-01 2.268950e-01 2.745677e-01 3.131815e-01 3.410382e-01 3.566602e-01 3.588914e-01 3.470162e-01 3.208809e-01 2.810043e-01 2.286514e-01 1.658482e-01 9.531847e-02 2.033500e-02 -5.550373e-02 -1.285443e-01 -1.953571e-01 -2.529803e-01 -2.990969e-01 -3.321257e-01 -3.512308e-01 -3.562636e-01 -3.215345e-01 -3.023410e-01 -2.724011e-01 -2.330942e-01 -1.859924e-01 -1.328010e-01 -7.531419e-02 -1.538148e-02 4.511577e-02 1.042835e-01 1.602330e-01 2.111036e-01 2.550924e-01 2.904976e-01 3.157761e-01 3.296187e-01 3.310389e-01 3.194733e-01 2.948796e-01 2.578211e-01 2.095173e-01 1.518446e-01 8.727169e-02 1.872903e-02 -5.058115e-02 -1.174107e-01 -1.786971e-01 -2.317691e-01 -2.744989e-01 -3.053887e-01 -3.235904e-01 -3.288700e-01 -2.987948e-01 -2.814061e-01 -2.538953e-01 -2.175108e-01 -1.737060e-01 -1.240825e-01 -7.034427e-02 -1.426189e-02 4.235608e-02 9.768773e-02 1.499219e-01 1.972860e-01 2.380799e-01 2.707210e-01 2.938002e-01 3.061507e-01 3.069273e-01 2.956895e-01 2.724816e-01 2.378956e-01 1.931048e-01 1.398530e-01 8.039224e-02 1.736549e-02 -4.635506e-02 -1.078585e-01 -1.643895e-01 -2.135225e-01 -2.532947e-01 -2.822866e-01 -2.996493e-01 -3.050851e-01 -2.800146e-01 -2.640857e-01 -2.385605e-01 -2.045807e-01 -1.635014e-01 -1.168363e-01 -6.621259e-02 -1.333249e-02 4.005899e-02 9.220302e-02 1.413558e-01 1.858203e-01 2.239832e-01 2.543613e-01 2.756549e-01 2.868126e-01 2.871005e-01 2.761736e-01 2.541402e-01 2.216096e-01 1.797121e-01 1.300814e-01 7.479337e-02 1.626121e-02 -4.290561e-02 -1.000643e-01 -1.527048e-01 -1.986000e-01 -2.359229e-01 -2.633226e-01 -2.799560e-01 -2.854801e-01 -2.656083e-01 -2.507801e-01 -2.267654e-01 -1.946248e-01 -1.556375e-01 -1.112492e-01 -6.302629e-02 -1.261665e-02 3.828560e-02 8.797224e-02 1.347531e-01 1.769909e-01 2.131403e-01 2.417944e-01 2.617372e-01 2.720038e-01 2.719429e-01 2.612786e-01 2.401642e-01 2.092181e-01 1.695352e-01 1.226640e-01 7.054739e-02 1.542656e-02 -4.028458e-02 -9.414278e-02 -1.438212e-01 -1.872418e-01 -2.226821e-01 -2.488456e-01 -2.648976e-01 -2.704646e-01 -2.558596e-01 -2.417667e-01 -2.187679e-01 -1.878691e-01 -1.502983e-01 -1.074542e-01 -6.086172e-02 -1.213080e-02 3.707990e-02 8.509752e-02 1.302693e-01 1.709990e-01 2.057882e-01 2.332815e-01 2.523196e-01 2.619949e-01 2.617106e-01 2.512358e-01 2.307520e-01 2.008820e-01 1.626952e-01 1.176825e-01 6.769760e-02 1.486755e-02 -3.852330e-02 -9.016376e-02 -1.378485e-01 -1.795992e-01 -2.137636e-01 -2.390835e-01 -2.547313e-01 -2.603152e-01 -2.509436e-01 -2.372187e-01 -2.147301e-01 -1.844568e-01 -1.476003e-01 -1.055361e-01 -5.976761e-02 -1.188538e-02 3.647016e-02 8.364424e-02 1.280033e-01 1.679723e-01 2.020761e-01 2.289861e-01 2.475707e-01 2.569514e-01 2.565583e-01 2.461827e-01 2.260195e-01 1.966932e-01 1.592601e-01 1.151818e-01 6.626759e-02 1.458737e-02 -3.763893e-02 -8.816582e-02 -1.348485e-01 -1.757586e-01 -2.092790e-01 -2.341713e-01 -2.496120e-01 -2.552007e-01 -2.601882e-01 -2.457821e-01 -2.223412e-01 -1.908952e-01 -1.526945e-01 -1.091594e-01 -6.183416e-02 -1.234698e-02 3.762613e-02 8.639499e-02 1.322887e-01 1.736917e-01 2.090837e-01 2.370863e-01 2.565154e-01 2.664391e-01 2.662385e-01 2.556650e-01 2.348901e-01 2.045370e-01 1.656880e-01 1.198596e-01 6.894429e-02 1.511720e-02 -3.928302e-02 -9.189000e-02 -1.404473e-01 -1.829344e-01 -2.176679e-01 -2.433717e-01 -2.592131e-01 -2.648058e-01 -2.656083e-01 -2.507801e-01 -2.267654e-01 -1.946248e-01 -1.556375e-01 -1.112492e-01 -6.302629e-02 -1.261664e-02 3.828560e-02 8.797224e-02 1.347531e-01 1.769909e-01 2.131403e-01 2.417944e-01 2.617372e-01 2.720038e-01 2.719429e-01 2.612786e-01 2.401642e-01 2.092181e-01 1.695352e-01 1.226640e-01 7.054739e-02 1.542656e-02 -4.028458e-02 -9.414278e-02 -1.438212e-01 -1.872418e-01 -2.226821e-01 -2.488456e-01 -2.648976e-01 -2.704646e-01 -2.763737e-01 -2.606991e-01 -2.355393e-01 -2.020171e-01 -1.614681e-01 -1.153882e-01 -6.538722e-02 -1.315118e-02 3.959058e-02 9.109489e-02 1.396342e-01 1.835288e-01 2.211843e-01 2.511369e-01 2.721076e-01 2.830647e-01 2.832918e-01 2.724572e-01 2.506759e-01 2.185555e-01 1.772146e-01 1.282648e-01 7.375024e-02 1.604489e-02 -4.228537e-02 -9.864199e-02 -1.505560e-01 -1.958348e-01 -2.326769e-01 -2.597472e-01 -2.762082e-01 -2.817137e-01 -2.923233e-01 -2.753757e-01 -2.485067e-01 -2.129319e-01 -1.700708e-01 -1.214921e-01 -6.886842e-02 -1.394053e-02 4.151220e-02 9.569701e-02 1.468330e-01 1.931793e-01 2.330699e-01 2.649577e-01 2.874695e-01 2.994732e-01 3.001531e-01 2.890906e-01 2.663400e-01 2.324884e-01 1.886867e-01 1.366394e-01 7.854238e-02 1.697094e-02 -4.527787e-02 -1.053690e-01 -1.606178e-01 -2.086584e-01 -2.475732e-01 -2.759711e-01 -2.930151e-01 -2.984042e-01 -3.131889e-01 -2.945411e-01 -2.654136e-01 -2.271440e-01 -1.812609e-01 -1.294266e-01 -7.339285e-02 -1.496851e-02 4.400522e-02 1.016745e-01 1.561920e-01 2.057404e-01 2.485620e-01 2.830016e-01 3.075624e-01 3.209779e-01 3.222975e-01 3.109819e-01 2.869976e-01 2.508973e-01 2.038690e-01 1.477366e-01 8.489865e-02 1.820153e-02 -4.924380e-02 -1.142810e-01 -1.739334e-01 -2.256035e-01 -2.672210e-01 -2.973269e-01 -3.150918e-01 