<VTKFile type="RectilinearGrid">
<RectilinearGrid WholeExtent="0 32 0 32 0 32" GhostLevel="0">
<Piece Extent="0 32 0 32 0 32">
<CellData Scalars="p phase" Vectors="vel">
<DataArray type="Float32" Name="p">
-2.525745e-01 -2.397442e-01 -2.181136e-01 -1.886364e-01 -1.524973e-01 -1.110610e-01 -6.582450e-02 -1.837446e-02 2.965230e-02 7.660537e-02 1.208568e-01 1.608389e-01 1.950846e-01 2.222727e-01 2.412778e-01 2.512228e-01 2.515330e-01 2.419858e-01 2.227518e-01 1.944196e-01 1.579985e-01 1.148953e-01 6.686026e-02 1.590629e-02 -3.579545e-02 -8.603408e-02 -1.326810e-01 -1.738040e-01 -2.077632e-01 -2.332820e-01 -2.494897e-01 -2.559348e-01 -2.573185e-01 -2.441521e-01 -2.220432e-01 -1.919720e-01 -1.551490e-01 -1.129627e-01 -6.693201e-02 -1.866306e-02 3.018889e-02 7.795534e-02 1.229897e-01 1.637039e-01 1.986085e-01 2.263577e-01 2.457998e-01 2.560312e-01 2.564521e-01 2.468200e-01 2.272927e-01 1.984573e-01 1.613349e-01 1.173584e-01 6.831848e-02 1.627976e-02 -3.652747e-02 -8.783133e-02 -1.354460e-01 -1.773908e-01 -2.119902e-01 -2.379461e-01 -2.543804e-01 -2.608470e-01 -2.667212e-01 -2.528836e-01 -2.298231e-01 -1.985728e-01 -1.603945e-01 -1.167238e-01 -6.912198e-02 -1.923388e-02 3.124944e-02 8.062431e-02 1.272076e-01 1.693716e-01 2.055827e-01 2.344465e-01 2.547590e-01 2.655634e-01 2.662100e-01 2.564152e-01 2.363112e-01 2.064808e-01 1.679677e-01 1.222568e-01 7.121893e-02 1.702231e-02 -3.798438e-02 -9.140694e-02 -1.409450e-01 -1.845212e-01 -2.203888e-01 -2.472076e-01 -2.640858e-01 -2.705891e-01 -2.806042e-01 -2.657633e-01 -2.412891e-01 -2.082938e-01 -1.681148e-01 -1.222568e-01 -7.234307e-02 -2.007386e-02 3.280816e-02 8.454885e-02 1.334125e-01 1.777140e-01 2.158554e-01 2.463707e-01 2.679785e-01 2.796423e-01 2.806372e-01 2.706166e-01 2.496720e-01 2.183780e-01 1.778102e-01 1.295296e-01 7.552648e-02 1.812433e-02 -4.015024e-02 -9.671912e-02 -1.491098e-01 -1.951008e-01 -2.328395e-01 -2.609242e-01 -2.784453e-01 -2.849879e-01 -2.986816e-01 -2.825123e-01 -2.561820e-01 -2.209073e-01 -1.781240e-01 -1.294261e-01 -7.651541e-02 -2.116259e-02 3.482513e-02 8.963046e-02 1.414517e-01 1.885309e-01 2.291879e-01 2.618641e-01 2.851765e-01 2.979834e-01 2.994586e-01 2.891694e-01 2.671503e-01 2.339606e-01 1.907148e-01 1.390723e-01 8.118062e-02 1.956948e-02 -4.299709e-02 -1.036954e-01 -1.598239e-01 -2.089696e-01 -2.491419e-01 -2.788607e-01 -2.971961e-01 -3.037631e-01 -3.205409e-01 -3.027321e-01 -2.741345e-01 -2.360928e-01 -1.901619e-01 -1.380420e-01 -8.152783e-02 -2.247157e-02 3.724510e-02 9.573235e-02 1.511123e-01 2.015419e-01 2.452439e-01 2.805485e-01 3.059493e-01 3.201746e-01 3.222711e-01 3.116961e-01 2.884080e-01 2.529418e-01 2.064541e-01 1.507223e-01 8.808663e-02 2.133246e-02 -4.648033e-02 -1.122218e-01 -1.729052e-01 -2.258814e-01 -2.689918e-01 -3.006642e-01 -3.199495e-01 -3.265057e-01 -3.456218e-01 -3.258875e-01 -2.946581e-01 -2.534273e-01 -2.038868e-01 -1.478569e-01 -8.723537e-02 -2.396349e-02 3.999654e-02 1.026766e-01 1.621161e-01 2.163788e-01 2.635786e-01 3.019195e-01 3.297529e-01 3.456542e-01 3.485184e-01 3.376684e-01 3.129661e-01 2.749095e-01 2.246976e-01 1.642411e-01 9.610492e-02 2.337641e-02 -5.053298e-02 -1.221288e-01 -1.880863e-01 -2.454790e-01 -2.919538e-01 -3.258367e-01 -3.461645e-01 -3.526534e-01 -3.731984e-01 -3.512925e-01 -3.171322e-01 -2.723779e-01 -2.188714e-01 -1.585624e-01 -9.345786e-02 -2.559170e-02 4.299118e-02 1.102427e-01 1.741171e-01 2.325804e-01 2.836308e-01 3.253352e-01 3.558876e-01 3.736916e-01 3.774679e-01 3.663817e-01 3.401768e-01 2.992997e-01 2.449878e-01 1.792957e-01 1.050398e-01 2.565021e-02 -5.505953e-02 -1.331777e-01 -2.049940e-01 -2.672684e-01 -3.174333e-01 -3.537077e-01 -3.751223e-01 -3.814689e-01 -4.023696e-01 -3.781047e-01 -3.408022e-01 -2.923015e-01 -2.346031e-01 -1.697902e-01 -9.998063e-02 -2.730042e-02 4.612468e-02 1.181686e-01 1.867020e-01 2.495930e-01 3.047218e-01 3.500124e-01 3.834913e-01 4.033761e-01 4.081953e-01 3.969355e-01 3.692023e-01 3.253744e-01 2.667200e-01 1.954428e-01 1.146297e-01 2.808626e-02 -5.993042e-02 -1.450476e-01 -2.231305e-01 -2.905984e-01 -3.446551e-01 -3.834132e-01 -4.059083e-01 -4.120258e-01 -4.320632e-01 -4.053321e-01 -3.647874e-01 -3.124538e-01 -2.504920e-01 -1.811184e-01 -1.065583e-01 -2.902554e-02 4.927867e-02 1.261558e-01 1.993977e-01 2.667792e-01 3.260645e-01 3.750346e-01 4.115451e-01 4.336201e-01 4.395839e-01 4.282293e-01 3.990066e-01 3.522113e-01 2.891320e-01 2.121197e-01 1.245416e-01 3.059929e-02 -6.497842e-02 -1.573276e-01 -2.418638e-01 -3.146487e-01 -3.726534e-01 -4.138891e-01 -4.374094e-01 -4.432098e-01 -4.610614e-01 -4.318588e-01 -3.881059e-01 -3.320103e-01 -2.658889e-01 -1.920845e-01 -1.129226e-01 -3.069661e-02 5.232464e-02 1.338784e-01 2.116861e-01 2.834368e-01 3.467858e-01 3.993771e-01 4.388994e-01 4.631835e-01 4.703468e-01 4.589808e-01 4.283701e-01 3.787141e-01 3.113098e-01 2.286476e-01 1.343727e-01 3.308709e-02 -6.999878e-02 -1.695188e-01 -2.604309e-01 -3.384381e-01 -4.002833e-01 -4.438871e-01 -4.683341e-01 -4.737416e-01 -4.880503e-01 -4.564914e-01 -4.097156e-01 -3.501027e-01 -2.801136e-01 -2.022059e-01 -1.187938e-01 -3.223992e-02 5.512965e-02 1.409980e-01 2.230264e-01 2.988290e-01 3.659640e-01 4.219501e-01 4.643204e-01 4.907233e-01 4.990764e-01 4.877736e-01 4.559322e-01 4.036488e-01 3.322174e-01 2.442529e-01 1.436625e-01 3.543382e-02 -7.475496e-02 -1.810487e-01 -2.779622e-01 -3.608555e-01 -4.262599e-01 -4.720199e-01 -4.972610e-01 -5.022278e-01 -5.116947e-01 -4.780270e-01 -4.285739e-01 -3.658671e-01 -2.924926e-01 -2.110062e-01 -1.238965e-01 -3.358259e-02 5.756365e-02 1.471821e-01 2.328855e-01 3.122264e-01 3.826810e-01 4.416602e-01 4.865613e-01 5.148703e-01 5.243247e-01 5.131373e-01 4.802683e-01 4.257129e-01 3.507534e-01 2.581087e-01 1.519178e-01 3.751620e-02 -7.899121e-02 -1.913021e-01 -2.935281e-01 -3.807218e-01 -4.492306e-01 -4.968393e-01 -5.227201e-01 -5.272400e-01 -5.307347e-01 -4.953385e-01 -4.437099e-01 -3.785034e-01 -3.024050e-01 -2.180479e-01 -1.279780e-01 -3.465745e-02 5.950790e-02 1.521261e-01 2.407735e-01 3.229558e-01 3.960852e-01 4.574875e-01 5.044507e-01 5.343286e-01 5.447106e-01 5.336580e-01 4.999974e-01 4.436346e-01 3.658354e-01 2.693985e-01 1.586499e-01 3.921261e-02 -8.245223e-02 -1.996680e-01 -3.062105e-01 -3.968801e-01 -4.678776e-01 -5.169460e-01 -5.433022e-01 -5.474200e-01 -5.440935e-01 -5.074684e-01 -4.543029e-01 -3.873382e-01 -3.093300e-01 -2.229646e-01 -1.308271e-01 -3.540822e-02 6.086367e-02 1.555758e-01 2.462807e-01 3.304523e-01 4.054593e-01 4.685684e-01 5.169911e-01 5.479882e-01 5.590430e-01 5.481080e-01 5.139120e-01 4.562941e-01 3.765042e-01 2.773942e-01 1.634215e-01 4.041432e-02 -8.490852e-02 -2.055995e-01 -3.151919e-01 -4.083066e-01 -4.810433e-01 -5.311190e-01 -5.577869e-01 -5.615994e-01 -5.509819e-01 -5.137178e-01 -4.597565e-01 -3.918839e-01 -3.128913e-01 -2.254921e-01 -1.322915e-01 -3.579427e-02 6.156009e-02 1.573485e-01 2.491118e-01 3.343077e-01 4.102831e-01 4.742744e-01 5.234539e-01 5.550340e-01 5.664430e-01 5.555762e-01 5.211110e-01 4.628503e-01 3.820348e-01 2.815427e-01 1.658984e-01 4.103800e-02 -8.618453e-02 -2.086789e-01 -3.198513e-01 -4.142288e-01 -4.878597e-01 -5.384491e-01 -5.652703e-01 -5.689177e-01 -5.509819e-01 -5.137178e-01 -4.597565e-01 -3.918839e-01 -3.128913e-01 -2.254921e-01 -1.322915e-01 -3.579427e-02 6.156009e-02 1.573485e-01 2.491118e-01 3.343077e-01 4.102831e-01 4.742744e-01 5.234539e-01 5.550340e-01 5.664430e-01 5.555762e-01 5.211110e-01 4.628503e-01 3.820348e-01 2.815427e-01 1.658984e-01 4.103800e-02 -8.618453e-02 -2.086789e-01 -3.198513e-01 -4.142288e-01 -4.878597e-01 -5.384491e-01 -5.652703e-01 -5.689177e-01 -5.440935e-01 -5.074684e-01 -4.543029e-01 -3.873382e-01 -3.093300e-01 -2.229646e-01 -1.308271e-01 -3.540822e-02 6.086367e-02 1.555758e-01 2.462807e-01 3.304523e-01 4.054593e-01 4.685684e-01 5.169911e-01 5.479882e-01 5.590430e-01 5.481080e-01 5.139120e-01 4.562941e-01 3.765042e-01 2.773942e-01 1.634215e-01 4.041432e-02 -8.490852e-02 -2.055995e-01 -3.151919e-01 -4.083066e-01 -4.810433e-01 -5.311190e-01 -5.577869e-01 -5.615994e-01 -5.307347e-01 -4.953385e-01 -4.437099e-01 -3.785034e-01 -3.024050e-01 -2.180479e-01 -1.279780e-01 -3.465745e-02 5.950790e-02 1.521261e-01 2.407735e-01 3.229558e-01 3.960852e-01 4.574875e-01 5.044507e-01 5.343286e-01 5.447106e-01 5.336580e-01 4.999974e-01 4.436346e-01 3.658354e-01 2.693985e-01 1.586499e-01 3.921261e-02 -8.245223e-02 -1.996680e-01 -3.062105e-01 -3.968801e-01 -4.678776e-01 -5.169460e-01 -5.433022e-01 -5.474200e-01 -5.116947e-01 -4.780270e-01 -4.285739e-01 -3.658671e-01 -2.924926e-01 -2.110062e-01 -1.238965e-01 -3.358259e-02 5.756365e-02 1.471821e-01 2.328855e-01 3.122264e-01 3.826810e-01 4.416602e-01 4.865613e-01 5.148703e-01 5.243247e-01 5.131373e-01 4.802683e-01 4.257129e-01 3.507534e-01 2.581087e-01 1.519178e-01 3.751620e-02 -7.899121e-02 -1.913021e-01 -2.935281e-01 -3.807218e-01 -4.492306e-01 -4.968393e-01 -5.227201e-01 -5.272400e-01 -4.880503e-01 -4.564914e-01 -4.097156e-01 -3.501027e-01 -2.801136e-01 -2.022059e-01 -1.187938e-01 -3.223992e-02 5.512965e-02 1.409980e-01 2.230264e-01 2.988290e-01 3.659640e-01 4.219501e-01 4.643204e-01 4.907233e-01 4.990764e-01 4.877736e-01 4.559322e-01 4.036488e-01 3.322174e-01 2.442529e-01 1.436625e-01 3.543382e-02 -7.475496e-02 -1.810487e-01 -2.779622e-01 -3.608555e-01 -4.262599e-01 -4.720199e-01 -4.972610e-01 -5.022278e-01 -4.610614e-01 -4.318588e-01 -3.881059e-01 -3.320103e-01 -2.658889e-01 -1.920845e-01 -1.129226e-01 -3.069661e-02 5.232464e-02 1.338784e-01 2.116861e-01 2.834368e-01 3.467858e-01 3.993771e-01 4.388994e-01 4.631835e-01 4.703468e-01 4.589808e-01 4.283701e-01 3.787141e-01 3.113098e-01 2.286476e-01 1.343727e-01 3.308709e-02 -6.999878e-02 -1.695188e-01 -2.604309e-01 -3.384381e-01 -4.002833e-01 -4.438871e-01 -4.683341e-01 -4.737416e-01 -4.320632e-01 -4.053321e-01 -3.647874e-01 -3.124538e-01 -2.504920e-01 -1.811184e-01 -1.065583e-01 -2.902554e-02 4.927867e-02 1.261558e-01 1.993977e-01 2.667792e-01 3.260645e-01 3.750346e-01 4.115451e-01 4.336201e-01 4.395839e-01 4.282293e-01 3.990066e-01 3.522113e-01 2.891320e-01 2.121197e-01 1.245416e-01 3.059929e-02 -6.497842e-02 -1.573276e-01 -2.418638e-01 -3.146487e-01 -3.726534e-01 -4.138891e-01 -4.374094e-01 -4.432098e-01 -4.023696e-01 -3.781047e-01 -3.408022e-01 -2.923015e-01 -2.346031e-01 -1.697902e-01 -9.998063e-02 -2.730042e-02 4.612468e-02 1.181686e-01 1.867020e-01 2.495930e-01 3.047218e-01 3.500124e-01 3.834913e-01 4.033761e-01 4.081953e-01 3.969355e-01 3.692023e-01 3.253744e-01 2.667200e-01 1.954428e-01 1.146297e-01 2.808626e-02 -5.993042e-02 -1.450476e-01 -2.231305e-01 -2.905984e-01 -3.446551e-01 -3.834132e-01 -4.059083e-01 -4.120258e-01 -3.731984e-01 -3.512925e-01 -3.171322e-01 -2.723779e-01 -2.188714e-01 -1.585624e-01 -9.345786e-02 -2.559170e-02 4.299118e-02 1.102427e-01 1.741171e-01 2.325804e-01 2.836308e-01 3.253352e-01 3.558876e-01 3.736916e-01 3.774679e-01 3.663817e-01 3.401768e-01 2.992997e-01 2.449878e-01 1.792957e-01 1.050398e-01 2.565021e-02 -5.505953e-02 -1.331777e-01 -2.049940e-01 -2.672684e-01 -3.174333e-01 -3.537077e-01 -3.751223e-01 -3.814689e-01 -3.456218e-01 -3.258875e-01 -2.946581e-01 -2.534273e-01 -2.038868e-01 -1.478569e-01 -8.723537e-02 -2.396349e-02 3.999654e-02 1.026766e-01 1.621161e-01 2.163788e-01 2.635786e-01 3.019195e-01 3.297529e-01 3.456542e-01 3.485184e-01 3.376684e-01 3.129661e-01 2.749095e-01 2.246976e-01 1.642411e-01 9.610492e-02 2.337641e-02 -5.053298e-02 -1.221288e-01 -1.880863e-01 -2.454790e-01 -2.919538e-01 -3.258367e-01 -3.461645e-01 -3.526534e-01 -3.205409e-01 -3.027321e-01 -2.741345e-01 -2.360928e-01 -1.901619e-01 -1.380420e-01 -8.152783e-02 -2.247157e-02 3.724510e-02 9.573235e-02 1.511123e-01 2.015419e-01 2.452439e-01 2.805485e-01 3.059493e-01 3.201746e-01 3.222711e-01 3.116961e-01 2.884080e-01 2.529418e-01 2.064541e-01 1.507223e-01 8.808663e-02 2.133246e-02 -4.648033e-02 -1.122218e-01 -1.729052e-01 -2.258814e-01 -2.689918e-01 -3.006642e-01 -3.199495e-01 -3.265057e-01 -2.986816e-01 -2.825123e-01 -2.561820e-01 -2.209073e-01 -1.781240e-01 -1.294261e-01 -7.651541e-02 -2.116259e-02 3.482513e-02 8.963046e-02 1.414517e-01 1.885309e-01 2.291879e-01 2.618641e-01 2.851765e-01 2.979834e-01 2.994586e-01 2.891694e-01 2.671503e-01 2.339606e-01 1.907148e-01 1.390723e-01 8.118062e-02 1.956948e-02 -4.299709e-02 -1.036954e-01 -1.598239e-01 -2.089696e-01 -2.491419e-01 -2.788607e-01 -2.971961e-01 -3.037631e-01 -2.806042e-01 -2.657633e-01 -2.412891e-01 -2.082938e-01 -1.681148e-01 -1.222568e-01 -7.234307e-02 -2.007386e-02 3.280816e-02 8.454885e-02 1.334125e-01 1.777140e-01 2.158554e-01 2.463707e-01 2.679785e-01 2.796423e-01 2.806372e-01 2.706166e-01 2.496720e-01 2.183780e-01 1.778102e-01 1.295296e-01 7.552648e-02 1.812433e-02 -4.015024e-02 -9.671912e-02 -1.491098e-01 -1.951008e-01 -2.328395e-01 -2.609242e-01 -2.784453e-01 -2.849879e-01 -2.667212e-01 -2.528836e-01 -2.298231e-01 -1.985728e-01 -1.603945e-01 -1.167238e-01 -6.912198e-02 -1.923388e-02 3.124944e-02 8.062431e-02 1.272076e-01 1.693716e-01 2.055827e-01 2.344465e-01 2.547590e-01 2.655634e-01 2.662100e-01 2.564152e-01 2.363112e-01 2.064808e-01 1.679677e-01 1.222568e-01 7.121893e-02 1.702231e-02 -3.798438e-02 -9.140694e-02 -1.409450e-01 -1.845212e-01 -2.203888e-01 -2.472076e-01 -2.640858e-01 -2.705891e-01 -2.573185e-01 -2.441521e-01 -2.220432e-01 -1.919720e-01 -1.551490e-01 -1.129627e-01 -6.693201e-02 -1.866306e-02 3.018889e-02 7.795534e-02 1.229897e-01 1.637039e-01 1.986085e-01 2.263577e-01 2.457998e-01 2.560312e-01 2.564521e-01 2.468200e-01 2.272927e-01 1.984573e-01 1.613349e-01 1.173584e-01 6.831848e-02 1.627976e-02 -3.652747e-02 -8.783133e-02 -1.354460e-01 -1.773908e-01 -2.119902e-01 -2.379461e-01 -2.543804e-01 -2.608470e-01 -2.525745e-01 -2.397442e-01 -2.181136e-01 -1.886364e-01 -1.524973e-01 -1.110610e-01 -6.582450e-02 -1.837446e-02 2.965230e-02 7.660537e-02 1.208568e-01 1.608389e-01 1.950846e-01 2.222727e-01 2.412778e-01 2.512228e-01 2.515330e-01 2.419858e-01 2.227518e-01 1.944196e-01 1.579985e-01 1.148953e-01 6.686026e-02 1.590629e-02 -3.579545e-02 -8.603408e-02 -1.326810e-01 -1.738040e-01 -2.077632e-01 -2.332820e-01 -2.494897e-01 -2.559348e-01 -2.573185e-01 -2.441521e-01 -2.220432e-01 -1.919720e-01 -1.551490e-01 -1.129627e-01 -6.693201e-02 -1.866306e-02 3.018889e-02 7.795534e-02 1.229897e-01 1.637039e-01 1.986085e-01 2.263577e-01 2.457998e-01 2.560312e-01 2.564521e-01 2.468200e-01 2.272927e-01 1.984573e-01 1.613349e-01 1.173584e-01 6.831848e-02 1.627976e-02 -3.652747e-02 -8.783133e-02 -1.354460e-01 -1.773908e-01 -2.119902e-01 -2.379461e-01 -2.543804e-01 -2.608470e-01 -2.623164e-01 -2.487873e-01 -2.261684e-01 -1.954683e-01 -1.579250e-01 -1.149518e-01 -6.808960e-02 -1.896464e-02 3.074951e-02 7.936642e-02 1.252207e-01 1.667039e-01 2.023033e-01 2.306476e-01 2.505569e-01 2.610989e-01 2.616467e-01 2.519345e-01 2.321058e-01 2.027442e-01 1.648822e-01 1.199802e-01 6.987181e-02 1.667770e-02 -3.730758e-02 -8.974570e-02 -1.383886e-01 -1.812036e-01 -2.164768e-01 -2.428880e-01 -2.595527e-01 -2.660321e-01 -2.722306e-01 -2.579760e-01 -2.343410e-01 -2.023915e-01 -1.634194e-01 -1.188874e-01 -7.037973e-02 -1.956146e-02 3.185809e-02 8.215757e-02 1.296351e-01 1.726420e-01 2.096203e-01 2.391477e-01 2.599889e-01 2.711539e-01 2.719607e-01 2.620973e-01 2.416761e-01 2.112736e-01 1.719440e-01 1.252016e-01 7.296594e-02 1.747005e-02 -3.886251e-02 -9.355985e-02 -1.442492e-01 -1.887931e-01 -2.254021e-01 -2.527125e-01 -2.698279e-01 -2.763251e-01 -2.868894e-01 -2.715470e-01 -2.463992e-01 -2.125974e-01 -1.715136e-01 -1.246822e-01 -7.375086e-02 -2.044041e-02 3.348866e-02 8.626503e-02 1.361345e-01 1.813904e-01 2.204089e-01 2.516926e-01 2.739238e-01 2.860262e-01 2.872344e-01 2.771648e-01 2.558817e-01 2.239474e-01 1.824462e-01 1.329719e-01 7.757223e-02 1.864883e-02 -4.117983e-02 -9.924018e-02 -1.529712e-01 -2.000789e-01 -2.386610e-01 -2.672907e-01 -2.850567e-01 -2.915619e-01 -3.060137e-01 -2.892251e-01 -2.620852e-01 -2.258582e-01 -1.820205e-01 -1.321991e-01 -7.812229e-02 -2.158089e-02 3.560076e-02 9.158924e-02 1.445650e-01 1.927481e-01 2.344304e-01 2.680177e-01 2.920841e-01 3.054387e-01 3.072036e-01 2.968971e-01 2.745146e-01 2.405952e-01 1.962584e-01 1.432006e-01 8.363878e-02 2.019983e-02 -4.423633e-02 -1.067252e-01 -1.644536e-01 -2.149190e-01 -2.560715e-01 -2.864040e-01 -3.049902e-01 -3.114725e-01 -3.291943e-01 -3.106121e-01 -2.810296e-01 -2.418500e-01 -1.946762e-01 -1.412458e-01 -8.338097e-02 -2.295394e-02 3.813810e-02 9.799096e-02 1.547102e-01 2.064308e-01 2.513451e-01 2.877430e-01 3.140667e-01 3.289835e-01 3.314736e-01 3.209288e-01 2.972528e-01 2.609478e-01 2.131705e-01 1.557396e-01 9.108010e-02 2.210002e-02 -4.799254e-02 -1.159124e-01 -1.785307e-01 -2.330858e-01 -2.773475e-01 -3.097153e-01 -3.292517e-01 -3.356555e-01 -3.558664e-01 -3.351652e-01 -3.027350e-01 -2.601409e-01 -2.091314e-01 -1.515683e-01 -8.937823e-02 -2.452131e-02 4.102719e-02 1.052876e-01 1.662850e-01 2.220616e-01 2.706991e-01 3.103555e-01 3.393208e-01 3.560951e-01 3.594882e-01 3.487366e-01 3.236262e-01 2.846055e-01 2.328653e-01 1.703620e-01 9.976412e-02 2.431431e-02 -5.238594e-02 -1.266425e-01 -1.949484e-01 -2.542359e-01 -3.020656e-01 -3.367352e-01 -3.573040e-01 -3.635479e-01 -3.852859e-01 -3.621793e-01 -3.265618e-01 -2.801808e-01 -2.249443e-01 -1.628478e-01 -9.592776e-02 -2.623481e-02 4.417669e-02 1.132511e-01 1.789316e-01 2.391642e-01 2.919131e-01 3.351935e-01 3.671269e-01 3.860246e-01 3.905000e-01 3.796051e-01 3.529812e-01 3.110028e-01 2.548870e-01 1.867379e-01 1.094977e-01 2.679210e-02 -5.732306e-02 -1.386803e-01 -2.133374e-01 -2.778775e-01 -3.296298e-01 -3.667865e-01 -3.884168e-01 -3.943968e-01 -4.165135e-01 -3.907754e-01 -3.517228e-01 -3.012990e-01 -2.415803e-01 -1.747003e-01 -1.028058e-01 -2.803630e-02 4.747778e-02 1.216082e-01 1.922189e-01 2.571608e-01 3.142790e-01 3.614399e-01 3.965858e-01 4.178232e-01 4.235469e-01 4.125991e-01 3.844500e-01 3.393776e-01 2.786133e-01 2.044124e-01 1.200131e-01 2.946399e-02 -6.267182e-02 -1.516977e-01 -2.331871e-01 -3.033402e-01 -3.592394e-01 -3.989743e-01 -4.216402e-01 -4.272381e-01 -4.484144e-01 -4.199051e-01 -3.772885e-01 -3.227107e-01 -2.584185e-01 -1.866821e-01 -1.097545e-01 -2.985846e-02 5.080612e-02 1.300451e-01 2.056495e-01 2.753803e-01 3.369667e-01 3.881269e-01 4.266203e-01 4.503390e-01 4.574452e-01 4.465512e-01 4.169333e-01 3.687516e-01 3.032360e-01 2.227894e-01 1.309575e-01 3.223962e-02 -6.825548e-02 -1.652602e-01 -2.538283e-01 -3.297551e-01 -3.898703e-01 -4.321698e-01 -4.557939e-01 -4.608909e-01 -4.796804e-01 -4.483736e-01 -4.022107e-01 -3.435387e-01 -2.747698e-01 -1.983032e-01 -1.164898e-01 -3.162673e-02 5.402581e-02 1.382170e-01 2.186740e-01 2.930767e-01 3.590465e-01 4.141603e-01 4.559983e-01 4.822390e-01 4.908067e-01 4.800739e-01 4.491077e-01 3.979322e-01 3.277594e-01 2.411285e-01 1.418914e-01 3.500743e-02 -7.385062e-02 -1.788234e-01 -2.744293e-01 -3.560532e-01 -4.202778e-01 -4.650193e-01 -4.894812e-01 -4.939763e-01 -5.088806e-01 -4.748882e-01 -4.253661e-01 -3.628506e-01 -2.899061e-01 -2.090483e-01 -1.227137e-01 -3.326259e-02 5.699537e-02 1.457631e-01 2.307150e-01 3.094614e-01 3.795285e-01 4.383641e-01 4.833825e-01 5.120594e-01 5.220890e-01 5.116065e-01 4.794663e-01 4.255467e-01 3.510265e-01 2.585634e-01 1.522985e-01 3.763759e-02 -7.919162e-02 -1.917452e-01 -2.940163e-01 -3.809943e-01 -4.490332e-01 -4.959873e-01 -5.211373e-01 -5.249688e-01 -5.345431e-01 -4.981319e-01 -4.456203e-01 -3.797114e-01 -3.031018e-01 -2.184060e-01 -1.281311e-01 -3.468792e-02 5.957567e-02 1.523273e-01 2.412001e-01 3.237482e-01 3.974181e-01 4.595479e-01 5.074064e-01 5.382893e-01 5.496824e-01 5.395021e-01 5.064017e-01 4.501157e-01 3.717796e-01 2.741464e-01 1.616120e-01 3.998851e-02 -8.398371e-02 -2.033180e-01 -3.115233e-01 -4.032322e-01 -4.746008e-01 -5.234410e-01 -5.491169e-01 -5.522816e-01 -5.552637e-01 -5.168593e-01 -4.619084e-01 -3.932494e-01 -3.136839e-01 -2.259036e-01 -1.324698e-01 -3.583041e-02 6.163913e-02 1.575815e-01 2.496000e-01 3.352068e-01 4.117871e-01 4.765921e-01 5.267746e-01 5.594832e-01 5.720322e-01 5.621541e-01 5.283305e-01 4.701681e-01 3.887572e-01 2.869201e-01 1.692570e-01 4.191712e-02 -8.792532e-02 -2.128223e-01 -3.258739e-01 -4.214183e-01 -4.954566e-01 -5.457761e-01 -5.718198e-01 -5.743873e-01 -5.698316e-01 -5.300041e-01 -4.733247e-01 -4.027268e-01 -3.210850e-01 -2.311439e-01 -1.355012e-01 -3.662917e-02 6.307925e-02 1.612511e-01 2.554705e-01 3.432217e-01 4.218486e-01 4.885427e-01 5.403755e-01 5.743920e-01 5.877837e-01 5.781505e-01 5.438480e-01 4.843875e-01 4.008207e-01 2.960135e-01 1.747067e-01 4.329195e-02 -9.073865e-02 -2.195985e-01 -3.360886e-01 -4.343365e-01 -5.102391e-01 -5.615727e-01 -5.878428e-01 -5.899576e-01 -5.773532e-01 -5.367838e-01 -4.792076e-01 -4.076069e-01 -3.248937e-01 -2.338395e-01 -1.370602e-01 -3.704014e-02 6.381937e-02 1.631378e-01 2.584901e-01 3.473466e-01 4.270304e-01 4.947024e-01 5.473925e-01 5.820921e-01 5.959288e-01 5.864329e-01 5.518936e-01 4.917705e-01 4.070935e-01 3.007484e-01 1.775470e-01 4.400866e-02 -9.220575e-02 -2.231302e-01 -3.414068e-01 -4.410524e-01 -5.179123e-01 -5.697603e-01 -5.961360e-01 -5.980061e-01 -5.773532e-01 -5.367838e-01 -4.792076e-01 -4.076069e-01 -3.248937e-01 -2.338395e-01 -1.370602e-01 -3.704014e-02 6.381937e-02 1.631378e-01 2.584901e-01 3.473466e-01 4.270304e-01 4.947024e-01 5.473925e-01 5.820921e-01 5.959288e-01 5.864329e-01 5.518936e-01 4.917705e-01 4.070935e-01 3.007484e-01 1.775470e-01 4.400866e-02 -9.220575e-02 -2.231302e-01 -3.414068e-01 -4.410524e-01 -5.179123e-01 -5.697603e-01 -5.961360e-01 -5.980061e-01 -5.698316e-01 -5.300041e-01 -4.733247e-01 -4.027268e-01 -3.210850e-01 -2.311439e-01 -1.355012e-01 -3.662917e-02 6.307925e-02 1.612511e-01 2.554705e-01 3.432217e-01 4.218486e-01 4.885427e-01 5.403755e-01 5.743920e-01 5.877837e-01 5.781505e-01 5.438480e-01 4.843875e-01 4.008207e-01 2.960135e-01 1.747067e-01 4.329195e-02 -9.073865e-02 -2.195985e-01 -3.360886e-01 -4.343365e-01 -5.102391e-01 -5.615727e-01 -5.878428e-01 -5.899576e-01 -5.552637e-01 -5.168593e-01 -4.619084e-01 -3.932494e-01 -3.136839e-01 -2.259036e-01 -1.324698e-01 -3.583041e-02 6.163913e-02 1.575815e-01 2.496000e-01 3.352068e-01 4.117871e-01 4.765921e-01 5.267746e-01 5.594832e-01 5.720322e-01 5.621541e-01 5.283305e-01 4.701681e-01 3.887572e-01 2.869201e-01 1.692570e-01 4.191712e-02 -8.792532e-02 -2.128223e-01 -3.258739e-01 -4.214183e-01 -4.954566e-01 -5.457761e-01 -5.718198e-01 -5.743873e-01 -5.345431e-01 -4.981319e-01 -4.456203e-01 -3.797114e-01 -3.031018e-01 -2.184060e-01 -1.281311e-01 -3.468792e-02 5.957567e-02 1.523273e-01 2.412001e-01 3.237482e-01 3.974181e-01 4.595479e-01 5.074064e-01 5.382893e-01 5.496824e-01 5.395021e-01 5.064017e-01 4.501157e-01 3.717796e-01 2.741464e-01 1.616120e-01 3.998851e-02 -8.398371e-02 -2.033180e-01 -3.115233e-01 -4.032322e-01 -4.746008e-01 -5.234410e-01 -5.491169e-01 -5.522816e-01 -5.088806e-01 -4.748882e-01 -4.253661e-01 -3.628506e-01 -2.899061e-01 -2.090483e-01 -1.227137e-01 -3.326259e-02 5.699537e-02 1.457631e-01 2.307150e-01 3.094614e-01 3.795285e-01 4.383641e-01 4.833825e-01 5.120594e-01 5.220890e-01 5.116065e-01 4.794663e-01 4.255467e-01 3.510265e-01 2.585634e-01 1.522985e-01 3.763759e-02 -7.919162e-02 -1.917452e-01 -2.940163e-01 -3.809943e-01 -4.490332e-01 -4.959873e-01 -5.211373e-01 -5.249688e-01 -4.796804e-01 -4.483736e-01 -4.022107e-01 -3.435387e-01 -2.747698e-01 -1.983032e-01 -1.164898e-01 -3.162673e-02 5.402581e-02 1.382170e-01 2.186740e-01 2.930767e-01 3.590465e-01 4.141603e-01 4.559983e-01 4.822390e-01 4.908067e-01 4.800739e-01 4.491077e-01 3.979322e-01 3.277594e-01 2.411285e-01 1.418914e-01 3.500743e-02 -7.385062e-02 -1.788234e-01 -2.744293e-01 -3.560532e-01 -4.202778e-01 -4.650193e-01 -4.894812e-01 -4.939763e-01 -4.484144e-01 -4.199051e-01 -3.772885e-01 -3.227107e-01 -2.584185e-01 -1.866821e-01 -1.097545e-01 -2.985846e-02 5.080612e-02 1.300451e-01 2.056495e-01 2.753803e-01 3.369667e-01 3.881269e-01 4.266203e-01 4.503390e-01 4.574452e-01 4.465512e-01 4.169333e-01 3.687516e-01 3.032360e-01 2.227894e-01 1.309575e-01 3.223962e-02 -6.825548e-02 -1.652602e-01 -2.538283e-01 -3.297551e-01 -3.898703e-01 -4.321698e-01 -4.557939e-01 -4.608909e-01 -4.165135e-01 -3.907754e-01 -3.517228e-01 -3.012990e-01 -2.415803e-01 -1.747003e-01 -1.028058e-01 -2.803631e-02 4.747778e-02 1.216082e-01 1.922189e-01 2.571608e-01 3.142790e-01 3.614399e-01 3.965858e-01 4.178232e-01 4.235469e-01 4.125991e-01 3.844500e-01 3.393776e-01 2.786133e-01 2.044124e-01 1.200131e-01 2.946399e-02 -6.267182e-02 -1.516977e-01 -2.331871e-01 -3.033402e-01 -3.592394e-01 -3.989743e-01 -4.216402e-01 -4.272381e-01 -3.852859e-01 -3.621793e-01 -3.265618e-01 -2.801808e-01 -2.249443e-01 -1.628478e-01 -9.592776e-02 -2.623481e-02 4.417669e-02 1.132511e-01 1.789316e-01 2.391642e-01 2.919131e-01 3.351935e-01 3.671269e-01 3.860246e-01 3.905000e-01 3.796051e-01 3.529812e-01 3.110028e-01 2.548870e-01 1.867379e-01 1.094977e-01 2.679210e-02 -5.732306e-02 -1.386803e-01 -2.133374e-01 -2.778775e-01 -3.296298e-01 -3.667865e-01 -3.884168e-01 -3.943968e-01 -3.558664e-01 -3.351652e-01 -3.027350e-01 -2.601409e-01 -2.091314e-01 -1.515683e-01 -8.937823e-02 -2.452131e-02 4.102719e-02 1.052876e-01 1.662850e-01 2.220616e-01 2.706991e-01 3.103555e-01 3.393208e-01 3.560951e-01 3.594882e-01 3.487366e-01 3.236262e-01 2.846055e-01 2.328653e-01 1.703620e-01 9.976412e-02 2.431431e-02 -5.238594e-02 -1.266425e-01 -1.949484e-01 -2.542359e-01 -3.020656e-01 -3.367352e-01 -3.573040e-01 -3.635479e-01 -3.291943e-01 -3.106121e-01 -2.810296e-01 -2.418500e-01 -1.946762e-01 -1.412458e-01 -8.338097e-02 -2.295394e-02 3.813810e-02 9.799096e-02 1.547102e-01 2.064308e-01 2.513451e-01 2.877430e-01 3.140667e-01 3.289835e-01 3.314736e-01 3.209288e-01 2.972528e-01 2.609478e-01 2.131705e-01 1.557396e-01 9.108010e-02 2.210002e-02 -4.799254e-02 -1.159124e-01 -1.785307e-01 -2.330858e-01 -2.773475e-01 -3.097153e-01 -3.292517e-01 -3.356555e-01 -3.060137e-01 -2.892251e-01 -2.620852e-01 -2.258582e-01 -1.820205e-01 -1.321991e-01 -7.812229e-02 -2.158089e-02 3.560076e-02 9.158924e-02 1.445650e-01 1.927481e-01 2.344304e-01 2.680177e-01 2.920841e-01 3.054387e-01 3.072036e-01 2.968971e-01 2.745146e-01 2.405952e-01 1.962584e-01 1.432006e-01 8.363878e-02 2.019983e-02 -4.423633e-02 -1.067252e-01 -1.644536e-01 -2.149190e-01 -2.560715e-01 -2.864040e-01 -3.049902e-01 -3.114725e-01 -2.868894e-01 -2.715470e-01 -2.463992e-01 -2.125974e-01 -1.715136e-01 -1.246822e-01 -7.375086e-02 -2.044041e-02 3.348866e-02 8.626503e-02 1.361345e-01 1.813904e-01 2.204089e-01 2.516926e-01 2.739238e-01 2.860262e-01 2.872344e-01 2.771648e-01 2.558817e-01 2.239474e-01 1.824462e-01 1.329719e-01 7.757223e-02 1.864883e-02 -4.117983e-02 -9.924018e-02 -1.529712e-01 -2.000789e-01 -2.386610e-01 -2.672907e-01 -2.850567e-01 -2.915619e-01 -2.722306e-01 -2.579760e-01 -2.343410e-01 -2.023915e-01 -1.634194e-01 -1.188874e-01 -7.037973e-02 -1.956146e-02 3.185809e-02 8.215757e-02 1.296351e-01 1.726420e-01 2.096203e-01 2.391477e-01 2.599889e-01 2.711539e-01 2.719607e-01 2.620973e-01 2.416761e-01 2.112736e-01 1.719440e-01 1.252016e-01 7.296594e-02 1.747005e-02 -3.886251e-02 -9.355985e-02 -1.442492e-01 -1.887931e-01 -2.254021e-01 -2.527125e-01 -2.698279e-01 -2.763251e-01 -2.623164e-01 -2.487873e-01 -2.261684e-01 -1.954683e-01 -1.579250e-01 -1.149518e-01 -6.808960e-02 -1.896464e-02 3.074951e-02 7.936642e-02 1.252207e-01 1.667039e-01 2.023033e-01 2.306476e-01 2.505569e-01 2.610989e-01 2.616467e-01 2.519345e-01 2.321058e-01 2.027442e-01 1.648822e-01 1.199802e-01 6.987181e-02 1.667770e-02 -3.730758e-02 -8.974570e-02 -1.383886e-01 -1.812036e-01 -2.164768e-01 -2.428880e-01 -2.595527e-01 -2.660321e-01 -2.573185e-01 -2.441521e-01 -2.220432e-01 -1.919720e-01 -1.551490e-01 -1.129627e-01 -6.693201e-02 -1.866306e-02 3.018889e-02 7.795534e-02 1.229897e-01 1.637039e-01 1.986085e-01 2.263577e-01 2.457998e-01 2.560312e-01 2.564521e-01 2.468200e-01 2.272927e-01 1.984573e-01 1.613349e-01 1.173584e-01 6.831848e-02 1.627976e-02 -3.652747e-02 -8.783133e-02 -1.354460e-01 -1.773908e-01 -2.119902e-01 -2.379461e-01 -2.543804e-01 -2.608470e-01 -2.667212e-01 -2.528836e-01 -2.298231e-01 -1.985728e-01 -1.603945e-01 -1.167238e-01 -6.912198e-02 -1.923388e-02 3.124944e-02 8.062431e-02 1.272076e-01 1.693716e-01 2.055827e-01 2.344465e-01 2.547590e-01 2.655634e-01 2.662100e-01 2.564152e-01 2.363112e-01 2.064808e-01 1.679677e-01 1.222568e-01 7.121893e-02 1.702231e-02 -3.798438e-02 -9.140694e-02 -1.409450e-01 -1.845212e-01 -2.203888e-01 -2.472076e-01 -2.640858e-01 -2.705891e-01 -2.722306e-01 -2.579760e-01 -2.343410e-01 -2.023915e-01 -1.634194e-01 -1.188874e-01 -7.037973e-02 -1.956146e-02 3.185809e-02 8.215757e-02 1.296351e-01 1.726420e-01 2.096203e-01 2.391477e-01 2.599889e-01 2.711539e-01 2.719607e-01 2.620973e-01 2.416761e-01 2.112736e-01 1.719440e-01 1.252016e-01 7.296594e-02 1.747005e-02 -3.886251e-02 -9.355985e-02 -1.442492e-01 -1.887931e-01 -2.254021e-01 -2.527125e-01 -2.698279e-01 -2.763251e-01 -2.831768e-01 -2.680852e-01 -2.433029e-01 -2.099614e-01 -1.694128e-01 -1.231725e-01 -7.287027e-02 -2.021032e-02 3.306269e-02 8.519309e-02 1.344428e-01 1.791220e-01 2.176253e-01 2.484750e-01 2.703733e-01 2.822640e-01 2.833994e-01 2.734096e-01 2.523666e-01 2.208319e-01 1.798791e-01 1.310813e-01 7.645521e-02 1.836395e-02 -4.061765e-02 -9.786085e-02 -1.508468e-01 -1.973176e-01 -2.353983e-01 -2.636796e-01 -2.812571e-01 -2.877316e-01 -2.994030e-01 -2.830499e-01 -2.565528e-01 -2.211414e-01 -1.782568e-01 -1.294917e-01 -7.654183e-02 -2.116732e-02 3.483696e-02 8.966674e-02 1.415323e-01 1.886852e-01 2.294505e-01 2.622692e-01 2.857511e-01 2.987400e-01 3.003880e-01 2.902361e-01 2.682913e-01 2.350890e-01 1.917287e-01 1.398691e-01 8.167282e-02 1.969973e-02 -4.324536e-02 -1.042949e-01 -1.607082e-01 -2.100455e-01 -2.503047e-01 -2.800104e-01 -2.982504e-01 -3.046653e-01 -3.206471e-01 -3.026049e-01 -2.738374e-01 -2.357042e-01 -1.897631e-01 -1.377063e-01 -8.131240e-02 -2.241158e-02 3.713955e-02 9.547711e-02 1.507477e-01 2.011291e-01 2.448584e-01 2.802713e-01 3.058562e-01 3.203231e-01 3.226887e-01 3.123702e-01 2.892815e-01 2.539161e-01 2.074016e-01 1.515065e-01 8.858694e-02 2.146813e-02 -4.673338e-02 -1.128258e-01 -1.737683e-01 -2.268767e-01 -2.699818e-01 -3.015253e-01 -3.205914e-01 