<VTKFile type="PolyData">
<PolyData>
<Piece NumberOfPoints="26" NumberOfVerts="0" NumberOfLines="0" NumberOfStrips="0" NumberOfPolys="0">
<Points>
<DataArray type="Float32" NumberOfComponents="3" format="ascii">
-1.805937 0.000000 0.000000 0.994063 1.200000 0.000000 -0.205937 0.000000 0.000000 0.994063 -1.200000 0.000000 0.994063 0.000000 1.200000 0.994063 0.000000 -1.200000 1.842591 0.848528 0.000000 0.145535 0.848528 0.000000 0.145535 -0.848528 0.000000 1.842591 -0.848528 0.000000 1.842591 0.000000 0.848528 0.994063 0.848528 0.848528 0.145535 0.000000 0.848528 0.994063 -0.848528 0.848528 1.842591 0.000000 -0.848528 0.994063 0.848528 -0.848528 0.145535 0.000000 -0.848528 0.994063 -0.848528 -0.848528 1.686883 0.692820 0.692820 0.301243 0.692820 0.692820 0.301243 -0.692820 0.692820 1.686883 -0.692820 0.692820 1.686883 0.692820 -0.692820 0.301243 0.692820 -0.692820 0.301243 -0.692820 -0.692820 1.686883 -0.692820 -0.692820 
</DataArray>
</Points>
<PointData Scalars="n status">
<DataArray type="Int32" Name="n" format="ascii">
0 0 0 0 0 0 0 0 0 0 0 0 0 0 0 0 0 0 0 0 0 0 0 0 0 0 
</DataArray>
<DataArray type="Int32" Name="status" format="ascii">
-1 -1 -1 -1 -1 -1 -1 -1 -1 -1 -1 -1 -1 -1 -1 -1 -1 -1 -1 -1 -1 -1 -1 -1 -1 -1 
</DataArray>
</PointData>
</Piece>
</PolyData>
</VTKFile>
