<VTKFile type="RectilinearGrid">
<RectilinearGrid WholeExtent="0 32 0 32 0 32" GhostLevel="0">
<Piece Extent="0 32 0 32 0 32">
<CellData Scalars="p phase" Vectors="vel">
<DataArray type="Float32" Name="p">
-3.051656e-01 -2.913139e-01 -2.666544e-01 -2.322985e-01 -1.896468e-01 -1.403264e-01 -8.613206e-02 -2.897293e-02 2.917574e-02 8.631707e-02 1.404762e-01 1.897447e-01 2.323291e-01 2.666040e-01 2.911710e-01 3.049216e-01 3.071023e-01 2.973755e-01 2.758711e-01 2.432199e-01 2.005624e-01 1.495253e-01 9.216409e-02 3.086991e-02 -3.175157e-02 -9.302147e-02 -1.503355e-01 -2.013051e-01 -2.438785e-01 -2.764332e-01 -2.978333e-01 -3.074526e-01 -3.109483e-01 -2.967180e-01 -2.715029e-01 -2.364466e-01 -1.929812e-01 -1.427634e-01 -8.761457e-02 -2.946775e-02 2.967933e-02 8.780813e-02 1.429213e-01 1.930866e-01 2.364837e-01 2.714578e-01 2.965789e-01 3.107063e-01 3.130558e-01 3.032641e-01 2.814443e-01 2.482229e-01 2.047519e-01 1.526873e-01 9.413046e-02 3.153353e-02 -3.242741e-02 -9.499943e-02 -1.535079e-01 -2.055033e-01 -2.488882e-01 -2.820108e-01 -3.037240e-01 -3.134060e-01 -3.224100e-01 -3.074231e-01 -2.811020e-01 -2.446550e-01 -1.995771e-01 -1.475827e-01 -9.054553e-02 -3.044595e-02 3.067486e-02 9.075600e-02 1.477566e-01 1.996971e-01 2.447051e-01 2.810675e-01 3.072916e-01 3.221721e-01 3.248635e-01 3.149504e-01 2.925112e-01 2.581631e-01 2.130800e-01 1.589751e-01 9.804182e-02 3.285366e-02 -3.377191e-02 -9.893387e-02 -1.598163e-01 -2.138487e-01 -2.588415e-01 -2.930864e-01 -3.154144e-01 -3.252135e-01 -3.393338e-01 -3.232143e-01 -2.952492e-01 -2.567432e-01 -2.092840e-01 -1.546715e-01 -9.485533e-02 -3.188407e-02 3.213844e-02 9.509066e-02 1.548690e-01 2.094258e-01 2.568123e-01 2.952303e-01 3.230941e-01 3.391022e-01 3.423161e-01 3.322413e-01 3.089022e-01 2.728988e-01 2.254356e-01 1.683096e-01 1.038509e-01 3.481476e-02 -3.576930e-02 -1.047773e-01 -1.691815e-01 -2.262298e-01 -2.735966e-01 -3.094901e-01 -3.327115e-01 -3.426658e-01 -3.613719e-01 -3.437500e-01 -3.136245e-01 -2.724273e-01 -2.218673e-01 -1.638544e-01 -1.004357e-01 -3.374575e-02 3.403308e-02 1.007032e-01 1.640827e-01 2.220374e-01 2.725212e-01 3.136261e-01 3.436449e-01 3.611487e-01 3.650749e-01 3.548211e-01 3.303358e-01 2.921921e-01 2.416304e-01 1.805553e-01 1.114763e-01 3.738971e-02 -3.839210e-02 -1.124479e-01 -1.814674e-01 -2.424580e-01 -2.929152e-01 -3.309403e-01 -3.552989e-01 -3.654238e-01 -3.880216e-01 -3.685418e-01 -3.357745e-01 -2.913079e-01 -2.369985e-01 -1.748873e-01 -1.071364e-01 -3.598050e-02 3.630739e-02 1.074426e-01 1.751525e-01 2.372026e-01 2.914321e-01 3.358010e-01 3.684551e-01 3.878089e-01 3.926444e-01 3.822219e-01 3.563901e-01 3.156816e-01 2.613744e-01 1.955009e-01 1.207899e-01 4.053593e-02 -4.159707e-02 -1.218171e-01 -1.964623e-01 -2.622427e-01 -3.164353e-01 -3.570144e-01 -3.827086e-01 -3.929920e-01 -4.185995e-01 -3.969329e-01 -3.610951e-01 -3.128579e-01 -2.542465e-01 -1.874513e-01 -1.147618e-01 -3.852282e-02 3.889470e-02 1.151121e-01 1.877585e-01 2.544897e-01 3.130168e-01 3.611506e-01 3.968678e-01 4.183994e-01 4.243430e-01 4.137917e-01 3.864687e-01 3.428494e-01 2.842470e-01 2.128371e-01 1.316030e-01 4.419014e-02 -4.531999e-02 -1.326948e-01 -2.138558e-01 -2.851624e-01 -3.436383e-01 -3.871153e-01 -4.142881e-01 -4.246886e-01 -4.522198e-01 -4.280812e-01 -3.888200e-01 -3.364132e-01 -2.730727e-01 -2.011496e-01 -1.230695e-01 -4.129157e-02 4.171243e-02 1.234678e-01 2.015029e-01 2.733588e-01 3.366104e-01 3.889077e-01 4.280405e-01 4.520343e-01 4.592758e-01 4.486629e-01 4.197676e-01 3.729887e-01 3.096673e-01 2.321324e-01 1.436501e-01 4.826334e-02 -4.947040e-02 -1.448146e-01 -2.332151e-01 -3.106351e-01 -3.738162e-01 -4.204385e-01 -4.491695e-01 -4.596183e-01 -4.877816e-01 -4.609520e-01 -4.180162e-01 -3.611730e-01 -2.928312e-01 -2.155096e-01 -1.317715e-01 -4.419058e-02 4.466274e-02 1.322202e-01 2.159113e-01 2.931626e-01 3.614110e-01 4.181385e-01 4.609377e-01 4.876124e-01 4.963175e-01 4.857316e-01 4.552509e-01 4.051776e-01 3.368700e-01 2.528133e-01 1.565765e-01 5.263606e-02 -5.392685e-02 -1.578197e-01 -2.539651e-01 -3.378938e-01 -4.060461e-01 -4.559470e-01 -4.862481e-01 -4.966559e-01 -5.239755e-01 -4.943271e-01 -4.475960e-01 -3.862105e-01 -3.127801e-01 -2.299904e-01 -1.405397e-01 -4.711042e-02 4.763425e-02 1.410392e-01 2.304412e-01 3.131575e-01 3.864901e-01 4.477539e-01 4.943404e-01 5.238240e-01 5.341144e-01 5.236540e-01 4.916433e-01 4.382692e-01 3.648936e-01 2.741540e-01 1.699309e-01 5.715598e-02 -5.853430e-02 -1.712561e-01 -2.753774e-01 -3.659751e-01 -4.391795e-01 -4.923645e-01 -5.241796e-01 -5.344476e-01 -5.593148e-01 -5.268367e-01 -4.763468e-01 -4.105008e-01 -3.321038e-01 -2.440009e-01 -1.490162e-01 -4.993202e-02 5.050578e-02 1.495649e-01 2.444992e-01 3.325261e-01 4.108214e-01 4.765401e-01 5.268779e-01 5.591814e-01 5.711131e-01 5.608716e-01 5.274502e-01 4.709061e-01 3.925905e-01 2.952821e-01 1.831683e-01 6.163875e-02 -6.310497e-02 -1.845756e-01 -2.965769e-01 -3.937291e-01 -4.718571e-01 -5.281954e-01 -5.614053e-01 -5.714402e-01 -5.921967e-01 -5.570174e-01 -5.029835e-01 -4.329652e-01 -3.499490e-01 -2.569249e-01 -1.568296e-01 -5.253187e-02 5.315164e-02 1.574236e-01 2.574672e-01 3.504131e-01 4.333241e-01 5.032101e-01 5.570852e-01 5.920810e-01 6.056230e-01 5.956717e-01 5.610134e-01 5.015691e-01 4.186664e-01 3.152078e-01 1.956675e-01 6.587394e-02 -6.742429e-02 -1.971532e-01 -3.165704e-01 -4.198587e-01 -5.025579e-01 -5.617803e-01 -5.962120e-01 -6.059434e-01 -6.209947e-01 -5.833960e-01 -5.262219e-01 -4.525326e-01 -3.654725e-01 -2.681563e-01 -1.636150e-01 -5.478894e-02 5.544868e-02 1.642486e-01 2.687370e-01 3.659731e-01 4.529252e-01 5.264782e-01 5.834878e-01 6.208954e-01 6.359138e-01 6.262864e-01 5.906067e-01 5.286637e-01 4.417532e-01 3.328787e-01 2.067658e-01 6.963654e-02 -7.126257e-02 -2.083218e-01 -3.343017e-01 -4.429929e-01 -5.296855e-01 -5.913920e-01 -6.268317e-01 -6.362275e-01 -6.441772e-01 -6.045944e-01 -5.448680e-01 -4.682123e-01 -3.778982e-01 -2.771389e-01 -1.690389e-01 -5.659257e-02 5.728426e-02 1.697040e-01 2.777504e-01 3.784283e-01 4.686323e-01 5.451485e-01 6.047059e-01 6.440917e-01 6.603438e-01 6.510252e-01 6.145668e-01 5.506426e-01 4.605144e-01 3.472610e-01 2.158089e-01 7.270409e-02 -7.439250e-02 -2.174227e-01 -3.487334e-01 -4.617926e-01 -5.516908e-01 -6.153665e-01 -6.515739e-01 -6.606513e-01 -6.604377e-01 -6.194439e-01 -5.579144e-01 -4.791721e-01 -3.865765e-01 -2.834086e-01 -1.728230e-01 -5.785067e-02 5.856465e-02 1.735101e-01 2.840416e-01 3.871272e-01 4.796114e-01 5.582120e-01 6.195695e-01 6.603621e-01 6.775038e-01 6.684281e-01 6.314477e-01 5.661513e-01 4.737722e-01 3.574378e-01 2.222143e-01 7.487783e-02 -7.661082e-02 -2.238692e-01 -3.589452e-01 -4.750774e-01 -5.672178e-01 -6.322572e-01 -6.689788e-01 -6.778067e-01 -6.688206e-01 -6.270930e-01 -5.646300e-01 -4.848101e-01 -3.910385e-01 -2.866309e-01 -1.747674e-01 -5.849702e-02 5.922244e-02 1.754659e-01 2.872750e-01 3.915999e-01 4.852593e-01 5.649364e-01 6.272260e-01 6.687503e-01 6.863584e-01 6.774165e-01 6.401751e-01 5.741775e-01 4.806403e-01 3.627147e-01 2.255377e-01 7.600603e-02 -7.776227e-02 -2.272141e-01 -3.642403e-01 -4.819594e-01 -5.752533e-01 -6.409895e-01 -6.779681e-01 -6.866588e-01 -6.688205e-01 -6.270931e-01 -5.646300e-01 -4.848101e-01 -3.910385e-01 -2.866309e-01 -1.747673e-01 -5.849702e-02 5.922245e-02 1.754658e-01 2.872750e-01 3.915999e-01 4.852593e-01 5.649364e-01 6.272261e-01 6.687503e-01 6.863584e-01 6.774165e-01 6.401751e-01 5.741775e-01 4.806403e-01 3.627147e-01 2.255377e-01 7.600602e-02 -7.776227e-02 -2.272141e-01 -3.642403e-01 -4.819594e-01 -5.752533e-01 -6.409895e-01 -6.779681e-01 -6.866588e-01 -6.604377e-01 -6.194438e-01 -5.579144e-01 -4.791721e-01 -3.865765e-01 -2.834085e-01 -1.728230e-01 -5.785066e-02 5.856464e-02 1.735101e-01 2.840416e-01 3.871272e-01 4.796113e-01 5.582120e-01 6.195695e-01 6.603621e-01 6.775038e-01 6.684281e-01 6.314477e-01 5.661513e-01 4.737722e-01 3.574378e-01 2.222142e-01 7.487783e-02 -7.661082e-02 -2.238692e-01 -3.589452e-01 -4.750774e-01 -5.672178e-01 -6.322572e-01 -6.689788e-01 -6.778067e-01 -6.441772e-01 -6.045944e-01 -5.448680e-01 -4.682123e-01 -3.778982e-01 -2.771389e-01 -1.690389e-01 -5.659258e-02 5.728427e-02 1.697040e-01 2.777504e-01 3.784283e-01 4.686323e-01 5.451485e-01 6.047060e-01 6.440917e-01 6.603438e-01 6.510252e-01 6.145668e-01 5.506426e-01 4.605144e-01 3.472610e-01 2.158089e-01 7.270408e-02 -7.439249e-02 -2.174227e-01 -3.487334e-01 -4.617926e-01 -5.516908e-01 -6.153665e-01 -6.515739e-01 -6.606514e-01 -6.209947e-01 -5.833960e-01 -5.262219e-01 -4.525326e-01 -3.654725e-01 -2.681563e-01 -1.636150e-01 -5.478893e-02 5.544867e-02 1.642486e-01 2.687370e-01 3.659731e-01 4.529252e-01 5.264782e-01 5.834878e-01 6.208954e-01 6.359138e-01 6.262864e-01 5.906067e-01 5.286637e-01 4.417532e-01 3.328787e-01 2.067657e-01 6.963655e-02 -7.126258e-02 -2.083217e-01 -3.343017e-01 -4.429929e-01 -5.296855e-01 -5.913920e-01 -6.268317e-01 -6.362275e-01 -5.921967e-01 -5.570174e-01 -5.029835e-01 -4.329652e-01 -3.499490e-01 -2.569249e-01 -1.568296e-01 -5.253187e-02 5.315165e-02 1.574236e-01 2.574672e-01 3.504131e-01 4.333241e-01 5.032101e-01 5.570852e-01 5.920810e-01 6.056230e-01 5.956717e-01 5.610134e-01 5.015691e-01 4.186664e-01 3.152077e-01 1.956675e-01 6.587394e-02 -6.742429e-02 -1.971532e-01 -3.165703e-01 -4.198587e-01 -5.025579e-01 -5.617803e-01 -5.962120e-01 -6.059434e-01 -5.593149e-01 -5.268367e-01 -4.763468e-01 -4.105008e-01 -3.321038e-01 -2.440009e-01 -1.490162e-01 -4.993202e-02 5.050577e-02 1.495649e-01 2.444992e-01 3.325262e-01 4.108214e-01 4.765401e-01 5.268779e-01 5.591814e-01 5.711131e-01 5.608716e-01 5.274502e-01 4.709061e-01 3.925905e-01 2.952821e-01 1.831683e-01 6.163876e-02 -6.310498e-02 -1.845756e-01 -2.965769e-01 -3.937291e-01 -4.718571e-01 -5.281954e-01 -5.614053e-01 -5.714402e-01 -5.239755e-01 -4.943271e-01 -4.475960e-01 -3.862105e-01 -3.127801e-01 -2.299904e-01 -1.405397e-01 -4.711043e-02 4.763426e-02 1.410392e-01 2.304412e-01 3.131575e-01 3.864902e-01 4.477539e-01 4.943404e-01 5.238239e-01 5.341144e-01 5.236540e-01 4.916433e-01 4.382692e-01 3.648936e-01 2.741539e-01 1.699309e-01 5.715597e-02 -5.853430e-02 -1.712561e-01 -2.753774e-01 -3.659751e-01 -4.391795e-01 -4.923645e-01 -5.241796e-01 -5.344476e-01 -4.877816e-01 -4.609520e-01 -4.180162e-01 -3.611730e-01 -2.928312e-01 -2.155096e-01 -1.317715e-01 -4.419057e-02 4.466273e-02 1.322202e-01 2.159113e-01 2.931626e-01 3.614109e-01 4.181385e-01 4.609377e-01 4.876124e-01 4.963175e-01 4.857316e-01 4.552509e-01 4.051776e-01 3.368700e-01 2.528133e-01 1.565765e-01 5.263607e-02 -5.392686e-02 -1.578197e-01 -2.539651e-01 -3.378938e-01 -4.060461e-01 -4.559470e-01 -4.862481e-01 -4.966559e-01 -4.522198e-01 -4.280812e-01 -3.888200e-01 -3.364132e-01 -2.730726e-01 -2.011496e-01 -1.230695e-01 -4.129158e-02 4.171244e-02 1.234678e-01 2.015030e-01 2.733588e-01 3.366105e-01 3.889077e-01 4.280405e-01 4.520343e-01 4.592758e-01 4.486629e-01 4.197676e-01 3.729887e-01 3.096673e-01 2.321324e-01 1.436501e-01 4.826333e-02 -4.947040e-02 -1.448146e-01 -2.332151e-01 -3.106351e-01 -3.738162e-01 -4.204385e-01 -4.491695e-01 -4.596183e-01 -4.185995e-01 -3.969329e-01 -3.610951e-01 -3.128578e-01 -2.542465e-01 -1.874512e-01 -1.147618e-01 -3.852281e-02 3.889469e-02 1.151121e-01 1.877585e-01 2.544897e-01 3.130167e-01 3.611506e-01 3.968678e-01 4.183995e-01 4.243430e-01 4.137917e-01 3.864687e-01 3.428494e-01 2.842470e-01 2.128371e-01 1.316030e-01 4.419015e-02 -4.531999e-02 -1.326948e-01 -2.138558e-01 -2.851624e-01 -3.436383e-01 -3.871153e-01 -4.142881e-01 -4.246886e-01 -3.880216e-01 -3.685418e-01 -3.357744e-01 -2.913079e-01 -2.369984e-01 -1.748873e-01 -1.071364e-01 -3.598051e-02 3.630740e-02 1.074426e-01 1.751525e-01 2.372026e-01 2.914321e-01 3.358009e-01 3.684551e-01 3.878089e-01 3.926444e-01 3.822219e-01 3.563901e-01 3.156816e-01 2.613744e-01 1.955009e-01 1.207900e-01 4.053592e-02 -4.159706e-02 -1.218171e-01 -1.964623e-01 -2.622427e-01 -3.164353e-01 -3.570144e-01 -3.827086e-01 -3.929920e-01 -3.613719e-01 -3.437500e-01 -3.136246e-01 -2.724273e-01 -2.218673e-01 -1.638544e-01 -1.004357e-01 -3.374574e-02 3.403307e-02 1.007033e-01 1.640827e-01 2.220374e-01 2.725212e-01 3.136261e-01 3.436449e-01 3.611487e-01 3.650749e-01 3.548211e-01 3.303358e-01 2.921921e-01 2.416304e-01 1.805553e-01 1.114763e-01 3.738972e-02 -3.839210e-02 -1.124479e-01 -1.814674e-01 -2.424580e-01 -2.929152e-01 -3.309403e-01 -3.552989e-01 -3.654238e-01 -3.393338e-01 -3.232143e-01 -2.952492e-01 -2.567432e-01 -2.092840e-01 -1.546715e-01 -9.485532e-02 -3.188408e-02 3.213845e-02 9.509065e-02 1.548690e-01 2.094258e-01 2.568123e-01 2.952303e-01 3.230941e-01 3.391022e-01 3.423161e-01 3.322413e-01 3.089022e-01 2.728988e-01 2.254356e-01 1.683096e-01 1.038509e-01 3.481475e-02 -3.576929e-02 -1.047773e-01 -1.691815e-01 -2.262298e-01 -2.735966e-01 -3.094901e-01 -3.327115e-01 -3.426658e-01 -3.224100e-01 -3.074231e-01 -2.811021e-01 -2.446550e-01 -1.995771e-01 -1.475827e-01 -9.054554e-02 -3.044594e-02 3.067485e-02 9.075601e-02 1.477566e-01 1.996972e-01 2.447050e-01 2.810675e-01 3.072916e-01 3.221721e-01 3.248634e-01 3.149504e-01 2.925112e-01 2.581631e-01 2.130800e-01 1.589751e-01 9.804181e-02 3.285367e-02 -3.377192e-02 -9.893386e-02 -1.598163e-01 -2.138487e-01 -2.588415e-01 -2.930864e-01 -3.154145e-01 -3.252135e-01 -3.109483e-01 -2.967180e-01 -2.715029e-01 -2.364466e-01 -1.929812e-01 -1.427635e-01 -8.761456e-02 -2.946776e-02 2.967934e-02 8.780812e-02 1.429214e-01 1.930866e-01 2.364837e-01 2.714578e-01 2.965789e-01 3.107063e-01 3.130558e-01 3.032641e-01 2.814443e-01 2.482229e-01 2.047519e-01 1.526873e-01 9.413047e-02 3.153352e-02 -3.242740e-02 -9.499944e-02 -1.535079e-01 -2.055034e-01 -2.488882e-01 -2.820108e-01 -3.037240e-01 -3.134060e-01 -3.051656e-01 -2.913139e-01 -2.666545e-01 -2.322985e-01 -1.896468e-01 -1.403264e-01 -8.613207e-02 -2.897292e-02 2.917573e-02 8.631708e-02 1.404762e-01 1.897447e-01 2.323291e-01 2.666040e-01 2.911710e-01 3.049216e-01 3.071023e-01 2.973756e-01 2.758711e-01 2.432199e-01 2.005624e-01 1.495253e-01 9.216408e-02 3.086992e-02 -3.175157e-02 -9.302147e-02 -1.503355e-01 -2.013051e-01 -2.438786e-01 -2.764332e-01 -2.978333e-01 -3.074526e-01 -3.109483e-01 -2.967180e-01 -2.715029e-01 -2.364466e-01 -1.929812e-01 -1.427634e-01 -8.761457e-02 -2.946775e-02 2.967933e-02 8.780813e-02 1.429213e-01 1.930866e-01 2.364837e-01 2.714578e-01 2.965789e-01 3.107063e-01 3.130558e-01 3.032641e-01 2.814443e-01 2.482229e-01 2.047519e-01 1.526873e-01 9.413046e-02 3.153353e-02 -3.242741e-02 -9.499943e-02 -1.535079e-01 -2.055033e-01 -2.488882e-01 -2.820108e-01 -3.037240e-01 -3.134060e-01 -3.170424e-01 -3.024025e-01 -2.765941e-01 -2.407955e-01 -1.964726e-01 -1.453126e-01 -8.916417e-02 -2.998480e-02 3.020555e-02 8.936668e-02 1.454790e-01 1.965858e-01 2.408394e-01 2.765545e-01 3.022675e-01 3.168027e-01 3.193423e-01 3.094941e-01 2.873516e-01 2.535348e-01 2.092067e-01 1.560533e-01 9.622545e-02 3.224082e-02 -3.314770e-02 -9.710673e-02 -1.568849e-01 -2.099673e-01 -2.542070e-01 -2.879226e-01 -3.099562e-01 -3.196923e-01 -3.291318e-01 -3.136716e-01 -2.866805e-01 -2.494067e-01 -2.033827e-01 -1.503561e-01 -9.222935e-02 -3.100740e-02 3.124628e-02 9.244957e-02 1.505394e-01 2.035114e-01 2.494643e-01 2.866522e-01 3.135447e-01 3.288966e-01 3.318222e-01 3.218711e-01 2.990957e-01 2.641022e-01 2.180740e-01 1.627564e-01 1.003987e-01 3.365002e-02 -3.458283e-02 -1.013045e-01 -1.636099e-01 -2.188527e-01 -2.647882e-01 -2.996758e-01 -3.223375e-01 -3.321720e-01 -3.470078e-01 -3.303158e-01 -3.015626e-01 -2.621008e-01 -2.135615e-01 -1.577811e-01 -9.674005e-02 -3.251199e-02 3.277754e-02 9.698634e-02 1.579892e-01 2.137130e-01 2.621786e-01 3.015509e-01 3.302011e-01 3.467794e-01 3.502979e-01 3.402163e-01 3.165231e-01 2.798003e-01 2.312589e-01 1.727309e-01 1.066119e-01 3.574855e-02 -3.672007e-02 -1.075543e-01 -1.736169e-01 -2.320647e-01 -2.805068e-01 -3.171166e-01 -3.406888e-01 -3.506471e-01 -3.703311e-01 -3.519983e-01 -3.209224e-01 -2.785938e-01 -2.267728e-01 -1.674106e-01 -1.025869e-01 -3.446171e-02 3.476182e-02 1.028670e-01 1.676509e-01 2.269542e-01 2.786980e-01 3.209325e-01 3.518997e-01 3.701119e-01 3.744433e-01 3.642308e-01 3.393728e-01 3.004133e-01 2.485942e-01 1.858588e-01 1.147952e-01 3.851349e-02 -3.953620e-02 -1.157860e-01 -1.867877e-01 -2.494355e-01 -3.011465e-01 -3.399835e-01 -3.647111e-01 -3.747913e-01 -3.986034e-01 -3.782310e-01 -3.443035e-01 -2.984821e-01 -2.426837e-01 -1.789964e-01 -1.096169e-01 -3.680521e-02 3.714686e-02 1.099377e-01 1.792756e-01 2.429010e-01 2.986183e-01 3.443403e-01 3.781523e-01 3.983958e-01 4.037724e-01 3.934614e-01 3.672418e-01 3.256013e-01 2.698115e-01 2.019474e-01 1.248333e-01 4.190655e-02 -4.299241e-02 -1.258836e-01 -2.029291e-01 -2.706962e-01 -3.263669e-01 -3.678732e-01 -3.939507e-01 -4.041185e-01 -4.311358e-01 -4.083478e-01 -3.710912e-01 -3.212271e-01 -2.608528e-01 -1.922114e-01 -1.176294e-01 -3.947516e-02 3.986412e-02 1.179965e-01 1.925351e-01 2.611116e-01 3.214003e-01 3.711591e-01 4.082926e-01 4.309422e-01 4.376027e-01 4.272606e-01 3.995435e-01 3.548603e-01 2.945058e-01 2.207017e-01 1.365471e-01 4.586812e-02 -4.702820e-02 -1.376672e-01 -2.217450e-01 -2.954409e-01 -3.556632e-01 -4.001984e-01 -4.277598e-01 -4.379460e-01 -4.670195e-01 -4.414826e-01 -4.004951e-01 -3.461433e-01 -2.807233e-01 -2.066456e-01 -1.263734e-01 -4.238766e-02 4.282822e-02 1.267912e-01 2.070179e-01 2.810276e-01 3.463574e-01 4.005976e-01 4.414538e-01 4.668421e-01 4.750198e-01 4.647466e-01 4.354654e-01 3.874802e-01 3.220974e-01 2.416933e-01 1.496745e-01 5.031035e-02 -5.155436e-02 -1.508735e-01 -2.428059e-01 -3.230889e-01 -3.883244e-01 -4.361458e-01 -4.652558e-01 -4.753591e-01 -5.051062e-01 -4.765551e-01 -4.315413e-01 -3.723945e-01 -3.016213e-01 -2.218055e-01 -1.355487e-01 -4.544237e-02 4.593707e-02 1.360197e-01 2.222291e-01 3.019738e-01 3.726523e-01 4.316812e-01 4.765552e-01 5.049472e-01 5.148515e-01 5.047711e-01 4.739327e-01 4.225076e-01 3.517968e-01 2.643326e-01 1.638515e-01 5.511083e-02 -5.644649e-02 -1.651364e-01 -2.655203e-01 -3.528489e-01 -4.233957e-01 -4.746396e-01 -5.052902e-01 -5.151855e-01 -5.440085e-01 -5.122766e-01 -4.630807e-01 -3.990034e-01 -3.227653e-01 -2.371224e-01 -1.448102e-01 -4.852435e-02 4.907368e-02 1.453351e-01 2.375981e-01 3.231670e-01 3.993060e-01 4.632593e-01 5.123072e-01 5.438692e-01 5.556614e-01 5.459069e-01 5.135901e-01 4.587234e-01 3.825826e-01 2.878487e-01 1.785990e-01 6.010788e-02 -6.154014e-02 -1.799743e-01 -2.891150e-01 -3.836975e-01 -4.596564e-01 -5.143235e-01 -5.464350e-01 -5.559888e-01 -5.821274e-01 -5.471792e-01 -4.938184e-01 -4.248786e-01 -3.432891e-01 -2.519695e-01 -1.537794e-01 -5.150761e-02 5.210984e-02 1.543564e-01 2.524959e-01 3.437388e-01 4.252254e-01 4.940354e-01 5.472406e-01 5.820087e-01 5.957727e-01 5.864661e-01 5.528138e-01 4.946491e-01 4.132023e-01 3.112885e-01 1.933212e-01 6.509994e-02 -6.663007e-02 -1.947876e-01 -3.126336e-01 -4.143797e-01 -4.956262e-01 -5.535725e-01 -5.870020e-01 -5.960925e-01 -6.177157e-01 -5.796763e-01 -5.223678e-01 -4.488614e-01 -3.622792e-01 -2.656892e-01 -1.620601e-01 -5.426070e-02 5.491178e-02 1.626854e-01 2.662626e-01 3.627738e-01 4.492496e-01 5.226214e-01 5.797672e-01 6.176172e-01 6.333323e-01 6.245606e-01 5.897660e-01 5.285927e-01 4.422089e-01 3.335423e-01 2.073208e-01 6.985057e-02 -7.147525e-02 -2.088750e-01 -3.349630e-01 -4.434455e-01 -5.296109e-01 -5.905477e-01 -6.251027e-01 -6.336437e-01 -6.489795e-01 -6.081540e-01 -5.473312e-01 -4.697923e-01 -3.788272e-01 -2.776305e-01 -1.692618e-01 -5.665409e-02 5.734765e-02 1.699292e-01 2.782449e-01 3.793612e-01 4.702171e-01 5.476174e-01 6.082717e-01 6.488997e-01 6.664169e-01 6.582104e-01 6.224990e-01 5.587432e-01 4.680399e-01 3.534037e-01 2.198360e-01 7.410092e-02 -7.581147e-02 -2.214697e-01 -3.548922e-01 -4.693292e-01 -5.597975e-01 -6.233002e-01 -6.587570e-01 -6.667200e-01 -6.742115e-01 -6.310897e-01 -5.673992e-01 -4.865919e-01 -3.920919e-01 -2.871932e-01 -1.750252e-01 -5.856884e-02 5.929641e-02 1.757263e-01 2.878406e-01 3.926577e-01 4.870465e-01 5.677120e-01 6.312295e-01 6.741476e-01 6.931802e-01 6.854963e-01 6.491071e-01 5.833126e-01 4.891396e-01 3.696627e-01 2.300984e-01 7.758904e-02 -7.937102e-02 -2.317980e-01 -3.712069e-01 -4.904719e-01 -5.843957e-01 -6.499235e-01 -6.860457e-01 -6.934756e-01 -6.919439e-01 -6.471827e-01 -5.814604e-01 -4.983489e-01 -4.013660e-01 -2.938740e-01 -1.790498e-01 -5.990555e-02 6.065687e-02 1.797744e-01 2.945446e-01 4.019541e-01 4.988244e-01 5.817921e-01 6.473383e-01 6.918916e-01 7.120220e-01 7.047421e-01 6.679118e-01 6.007120e-01 5.041133e-01 3.812246e-01 2.374077e-01 8.007508e-02 -8.190851e-02 -2.391545e-01 -3.828085e-01 -5.054758e-01 -6.018152e-01 -6.687385e-01 -7.052930e-01 -7.123116e-01 -7.010966e-01 -6.554809e-01 -5.887046e-01 -5.044015e-01 -4.061375e-01 -2.973097e-01 -1.811188e-01 -6.059266e-02 6.135619e-02 1.818555e-01 2.979922e-01 4.067371e-01 5.048879e-01 5.890461e-01 6.556449e-01 7.010504e-01 7.217583e-01 7.146991e-01 6.776532e-01 6.097381e-01 5.118927e-01 3.872405e-01 2.412145e-01 8.137032e-02 -8.323075e-02 -2.429860e-01 -3.888450e-01 -5.132708e-01 -6.108516e-01 -6.784850e-01 -7.152506e-01 -7.220447e-01 -7.010966e-01 -6.554809e-01 -5.887046e-01 -5.044015e-01 -4.061375e-01 -2.973097e-01 -1.811188e-01 -6.059265e-02 6.135619e-02 1.818555e-01 2.979922e-01 4.067371e-01 5.048879e-01 5.890461e-01 6.556449e-01 7.010504e-01 7.217583e-01 7.146991e-01 6.776532e-01 6.097381e-01 5.118927e-01 3.872405e-01 2.412145e-01 8.137033e-02 -8.323075e-02 -2.429860e-01 -3.888450e-01 -5.132708e-01 -6.108516e-01 -6.784850e-01 -7.152506e-01 -7.220447e-01 -6.919439e-01 -6.471827e-01 -5.814603e-01 -4.983489e-01 -4.013660e-01 -2.938740e-01 -1.790498e-01 -5.990556e-02 6.065688e-02 1.797744e-01 2.945446e-01 4.019540e-01 4.988244e-01 5.817921e-01 6.473383e-01 6.918916e-01 7.120220e-01 7.047421e-01 6.679118e-01 6.007120e-01 5.041133e-01 3.812246e-01 2.374077e-01 8.007507e-02 -8.190851e-02 -2.391545e-01 -3.828085e-01 -5.054758e-01 -6.018152e-01 -6.687385e-01 -7.052930e-01 -7.123116e-01 -6.742115e-01 -6.310897e-01 -5.673992e-01 -4.865919e-01 -3.920919e-01 -2.871932e-01 -1.750252e-01 -5.856883e-02 5.929640e-02 1.757263e-01 2.878406e-01 3.926577e-01 4.870465e-01 5.677120e-01 6.312295e-01 6.741476e-01 6.931802e-01 6.854963e-01 6.491070e-01 5.833126e-01 4.891396e-01 3.696627e-01 2.300984e-01 7.758904e-02 -7.937103e-02 -2.317980e-01 -3.712069e-01 -4.904719e-01 -5.843957e-01 -6.499235e-01 -6.860457e-01 -6.934756e-01 -6.489795e-01 -6.081540e-01 -5.473312e-01 -4.697923e-01 -3.788272e-01 -2.776305e-01 -1.692618e-01 -5.665410e-02 5.734766e-02 1.699292e-01 2.782450e-01 3.793612e-01 4.702171e-01 5.476174e-01 6.082717e-01 6.488997e-01 6.664169e-01 6.582104e-01 6.224990e-01 5.587432e-01 4.680399e-01 3.534037e-01 2.198360e-01 7.410091e-02 -7.581146e-02 -2.214697e-01 -3.548922e-01 -4.693293e-01 -5.597975e-01 -6.233002e-01 -6.587570e-01 -6.667200e-01 -6.177157e-01 -5.796763e-01 -5.223678e-01 -4.488614e-01 -3.622792e-01 -2.656892e-01 -1.620601e-01 -5.426069e-02 5.491177e-02 1.626854e-01 2.662626e-01 3.627738e-01 4.492496e-01 5.226214e-01 5.797672e-01 6.176172e-01 6.333322e-01 6.245606e-01 5.897660e-01 5.285927e-01 4.422089e-01 3.335423e-01 2.073208e-01 6.985058e-02 -7.147526e-02 -2.088750e-01 -3.349630e-01 -4.434455e-01 -5.296109e-01 -5.905477e-01 -6.251028e-01 -6.336437e-01 -5.821274e-01 -5.471792e-01 -4.938184e-01 -4.248786e-01 -3.432891e-01 -2.519695e-01 -1.537794e-01 -5.150762e-02 5.210985e-02 1.543564e-01 2.524959e-01 3.437388e-01 4.252254e-01 4.940354e-01 5.472406e-01 5.820086e-01 5.957727e-01 5.864661e-01 5.528138e-01 4.946491e-01 4.132023e-01 3.112885e-01 1.933212e-01 6.509993e-02 -6.663006e-02 -1.947876e-01 -3.126336e-01 -4.143797e-01 -4.956262e-01 -5.535725e-01 -5.870020e-01 -5.960925e-01 -5.440086e-01 -5.122766e-01 -4.630807e-01 -3.990034e-01 -3.227653e-01 -2.371224e-01 -1.448103e-01 -4.852434e-02 4.907368e-02 1.453351e-01 2.375981e-01 3.231670e-01 3.993060e-01 4.632593e-01 5.123072e-01 5.438693e-01 5.556614e-01 5.459069e-01 5.135901e-01 4.587234e-01 3.825826e-01 2.878487e-01 1.785990e-01 6.010788e-02 -6.154015e-02 -1.799742e-01 -2.891150e-01 -3.836975e-01 -4.596564e-01 -5.143235e-01 -5.464350e-01 -5.559888e-01 -5.051062e-01 -4.765551e-01 -4.315413e-01 -3.723945e-01 -3.016213e-01 -2.218055e-01 -1.355487e-01 -4.544238e-02 4.593708e-02 1.360197e-01 2.222291e-01 3.019738e-01 3.726523e-01 4.316812e-01 4.765552e-01 5.049472e-01 5.148515e-01 5.047711e-01 4.739327e-01 4.225076e-01 3.517968e-01 2.643326e-01 1.638515e-01 5.511082e-02 -5.644648e-02 -1.651364e-01 -2.655203e-01 -3.528489e-01 -4.233957e-01 -4.746396e-01 -5.052902e-01 -5.151855e-01 -4.670195e-01 -4.414825e-01 -4.004951e-01 -3.461433e-01 -2.807233e-01 -2.066456e-01 -1.263734e-01 -4.238765e-02 4.282822e-02 1.267912e-01 2.070179e-01 2.810276e-01 3.463574e-01 4.005976e-01 4.414538e-01 4.668421e-01 4.750198e-01 4.647466e-01 4.354654e-01 3.874803e-01 3.220974e-01 2.416933e-01 1.496745e-01 5.031036e-02 -5.155437e-02 -1.508735e-01 -2.428060e-01 -3.230889e-01 -3.883245e-01 -4.361458e-01 -4.652558e-01 -4.753591e-01 -4.311358e-01 -4.083479e-01 -3.710912e-01 -3.212272e-01 -2.608528e-01 -1.922114e-01 -1.176294e-01 -3.947517e-02 3.986413e-02 1.179965e-01 1.925351e-01 2.611116e-01 3.214003e-01 3.711591e-01 4.082926e-01 4.309422e-01 4.376027e-01 4.272606e-01 3.995435e-01 3.548603e-01 2.945058e-01 2.207017e-01 1.365471e-01 4.586812e-02 -4.702819e-02 -1.376673e-01 -2.217450e-01 -2.954409e-01 -3.556632e-01 -4.001984e-01 -4.277598e-01 -4.379460e-01 -3.986034e-01 -3.782310e-01 -3.443035e-01 -2.984821e-01 -2.426837e-01 -1.789964e-01 -1.096169e-01 -3.680521e-02 3.714685e-02 1.099377e-01 1.792756e-01 2.429011e-01 2.986183e-01 3.443403e-01 3.781522e-01 3.983958e-01 4.037724e-01 3.934614e-01 3.672418e-01 3.256013e-01 2.698115e-01 2.019474e-01 1.248333e-01 4.190656e-02 -4.299241e-02 -1.258836e-01 -2.029291e-01 -2.706962e-01 -3.263669e-01 -3.678732e-01 -3.939507e-01 -4.041185e-01 -3.703311e-01 -3.519983e-01 -3.209223e-01 -2.785938e-01 -2.267728e-01 -1.674106e-01 -1.025869e-01 -3.446172e-02 3.476183e-02 1.028670e-01 1.676509e-01 2.269542e-01 2.786980e-01 3.209325e-01 3.518997e-01 3.701119e-01 3.744433e-01 3.642308e-01 3.393728e-01 3.004133e-01 2.485942e-01 1.858588e-01 1.147952e-01 3.851348e-02 -3.953619e-02 -1.157860e-01 -1.867877e-01 -2.494355e-01 -3.011465e-01 -3.399835e-01 -3.647111e-01 -3.747913e-01 -3.470078e-01 -3.303158e-01 -3.015626e-01 -2.621008e-01 -2.135615e-01 -1.577811e-01 -9.674006e-02 -3.251198e-02 3.277753e-02 9.698635e-02 1.579892e-01 2.137130e-01 2.621786e-01 3.015509e-01 3.302010e-01 3.467794e-01 3.502979e-01 3.402163e-01 3.165231e-01 2.798003e-01 2.312589e-01 1.727309e-01 1.066119e-01 3.574856e-02 -3.672008e-02 -1.075543e-01 -1.736169e-01 -2.320647e-01 -2.805068e-01 -3.171166e-01 -3.406888e-01 -3.506471e-01 -3.291318e-01 -3.136716e-01 -2.866805e-01 -2.494067e-01 -2.033827e-01 -1.503561e-01 -9.222934e-02 -3.100741e-02 3.124629e-02 9.244956e-02 1.505394e-01 2.035114e-01 2.494643e-01 2.866521e-01 3.135447e-01 3.288966e-01 3.318223e-01 3.218711e-01 2.990957e-01 2.641022e-01 2.180740e-01 1.627564e-01 1.003987e-01 3.365001e-02 -3.458282e-02 -1.013045e-01 -1.636099e-01 -2.188527e-01 -2.647882e-01 -2.996758e-01 -3.223375e-01 -3.321720e-01 -3.170424e-01 -3.024025e-01 -2.765941e-01 -2.407955e-01 -1.964726e-01 -1.453126e-01 -8.916418e-02 -2.998479e-02 3.020554e-02 8.936669e-02 1.454790e-01 1.965858e-01 2.408394e-01 2.765546e-01 3.022675e-01 3.168027e-01 3.193422e-01 3.094942e-01 2.873516e-01 2.535348e-01 2.092067e-01 1.560533e-01 9.622545e-02 3.224083e-02 -3.314771e-02 -9.710672e-02 -1.568849e-01 -2.099673e-01 -2.542070e-01 -2.879226e-01 -3.099562e-01 -3.196923e-01 -3.109483e-01 -2.967180e-01 -2.715029e-01 -2.364466e-01 -1.929812e-01 -1.427635e-01 -8.761456e-02 -2.946776e-02 2.967934e-02 8.780812e-02 1.429214e-01 1.930866e-01 2.364837e-01 2.714578e-01 2.965789e-01 3.107063e-01 3.130558e-01 3.032641e-01 2.814443e-01 2.482229e-01 2.047519e-01 1.526873e-01 9.413047e-02 3.153352e-02 -3.242740e-02 -9.499944e-02 -1.535079e-01 -2.055034e-01 -2.488882e-01 -2.820108e-01 -3.037240e-01 -3.134060e-01 -3.224100e-01 -3.074231e-01 -2.811020e-01 -2.446550e-01 -1.995771e-01 -1.475827e-01 -9.054553e-02 -3.044595e-02 3.067486e-02 9.075600e-02 1.477566e-01 1.996971e-01 2.447051e-01 2.810675e-01 3.072916e-01 3.221721e-01 3.248635e-01 3.149504e-01 2.925112e-01 2.581631e-01 2.130800e-01 1.589751e-01 9.804182e-02 3.285366e-02 -3.377191e-02 -9.893387e-02 -1.598163e-01 -2.138487e-01 -2.588415e-01 -2.930864e-01 -3.154144e-01 -3.252135e-01 -3.291318e-01 -3.136716e-01 -2.866805e-01 -2.494067e-01 -2.033827e-01 -1.503561e-01 -9.222935e-02 -3.100740e-02 3.124628e-02 9.244957e-02 1.505394e-01 2.035114e-01 2.494643e-01 2.866522e-01 3.135447e-01 3.288966e-01 3.318222e-01 3.218711e-01 2.990957e-01 2.641022e-01 2.180740e-01 1.627564e-01 1.003987e-01 3.365002e-02 -3.458283e-02 -1.013045e-01 -1.636099e-01 -2.188527e-01 -2.647882e-01 -2.996758e-01 -3.223375e-01 -3.321720e-01 -3.424876e-01 -3.260763e-01 -2.977464e-01 -2.588262e-01 -2.109226e-01 -1.558486e-01 -9.556295e-02 -3.211882e-02 3.237744e-02 9.580248e-02 1.560503e-01 2.110683e-01 2.588989e-01 2.977305e-01 3.259587e-01 3.422577e-01 3.456616e-01 3.356474e-01 3.122142e-01 2.759448e-01 2.280391e-01 1.703063e-01 1.051064e-01 3.524096e-02 -3.620289e-02 -1.060397e-01 -1.711842e-01 -2.288381e-01 -2.766460e-01 -3.128042e-01 -3.361182e-01 -3.460107e-01 -3.622880e-01 -3.444407e-01 -3.141076e-01 -2.727376e-01 -2.220477e-01 -1.639472e-01 -1.004759e-01 -3.375636e-02 3.404407e-02 1.007439e-01 1.641761e-01 2.222186e-01 2.728327e-01 3.141104e-01 3.443369e-01 3.620660e-01 3.662095e-01 3.561329e-01 3.317505e-01 2.936052e-01 2.429177e-01 1.815895e-01 1.121467e-01 3.762102e-02 -3.862662e-02 -1.131212e-01 -1.825039e-01 -2.437468e-01 -2.943290e-01 -3.323550e-01 -3.566101e-01 -3.665574e-01 -3.882147e-01 -3.684405e-01 -3.354519e-01 -2.908581e-01 -2.365206e-01 -1.744724e-01 -1.068568e-01 -3.588252e-02 3.620799e-02 1.071618e-01 1.747367e-01 2.367244e-01 2.909825e-01 3.354792e-01 3.683551e-01 3.880036e-01 3.931711e-01 3.830690e-01 3.574913e-01 3.169186e-01 2.625915e-01 1.965291e-01 1.214773e-01 4.077674e-02 -4.184042e-02 -1.225065e-01 -1.974920e-01 -2.634604e-01 -3.176720e-01 -3.581144e-01 -3.835542e-01 