<VTKFile type="RectilinearGrid">
<RectilinearGrid WholeExtent="0 32 0 32 0 32" GhostLevel="0">
<Piece Extent="0 32 0 32 0 32">
<CellData Scalars="p phase" Vectors="vel">
<DataArray type="Float32" Name="p">
-2.623304e-01 -2.415585e-01 -2.122903e-01 -1.757139e-01 -1.332135e-01 -8.632006e-02 -3.666870e-02 1.404131e-02 6.408285e-02 1.117369e-01 1.553300e-01 1.932752e-01 2.241187e-01 2.465923e-01 2.596711e-01 2.626345e-01 2.551250e-01 2.371992e-01 2.093635e-01 1.725864e-01 1.282806e-01 7.825131e-02 2.461142e-02 -3.033068e-02 -8.420173e-02 -1.346989e-01 -1.797163e-01 -2.174522e-01 -2.464864e-01 -2.658270e-01 -2.749255e-01 -2.736654e-01 -2.671175e-01 -2.458655e-01 -2.159907e-01 -1.787092e-01 -1.354309e-01 -8.771002e-02 -3.720229e-02 1.437407e-02 6.527377e-02 1.137592e-01 1.581368e-01 1.967973e-01 2.282619e-01 2.512350e-01 2.646633e-01 2.677982e-01 2.602581e-01 2.420826e-01 2.137719e-01 1.763021e-01 1.311093e-01 8.003826e-02 2.525515e-02 -3.086878e-02 -8.589360e-02 -1.374526e-01 -1.833848e-01 -2.218464e-01 -2.513911e-01 -2.710169e-01 -2.801793e-01 -2.787773e-01 -2.766004e-01 -2.543928e-01 -2.233137e-01 -1.846348e-01 -1.398168e-01 -9.045942e-02 -3.825881e-02 1.502993e-02 6.762614e-02 1.177560e-01 1.636868e-01 2.037653e-01 2.364633e-01 2.604310e-01 2.745578e-01 2.780396e-01 2.704458e-01 2.517810e-01 2.225321e-01 1.836894e-01 1.367352e-01 8.359271e-02 2.653490e-02 -3.194097e-02 -8.926129e-02 -1.429312e-01 -1.906796e-01 -2.305793e-01 -2.611326e-01 -2.813180e-01 -2.906002e-01 -2.889098e-01 -2.905894e-01 -2.669609e-01 -2.340989e-01 -1.933571e-01 -1.462707e-01 -9.450558e-02 -3.981621e-02 1.598943e-02 7.108004e-02 1.236299e-01 1.718497e-01 2.140223e-01 2.485472e-01 2.739940e-01 2.891671e-01 2.931780e-01 2.855216e-01 2.661482e-01 2.355220e-01 1.946523e-01 1.450891e-01 8.887212e-02 2.843421e-02 -3.353764e-02 -9.426849e-02 -1.510709e-01 -2.015087e-01 -2.435309e-01 -2.755648e-01 -2.965624e-01 -3.060047e-01 -3.038719e-01 -3.087823e-01 -2.832862e-01 -2.480942e-01 -2.046669e-01 -1.546357e-01 -9.975060e-02 -4.183962e-02 1.722311e-02 7.554320e-02 1.312300e-01 1.824228e-01 2.273231e-01 2.642368e-01 2.916286e-01 3.081903e-01 3.129206e-01 3.052129e-01 2.849417e-01 2.525367e-01 2.090283e-01 1.560529e-01 9.580366e-02 3.092570e-02 -3.564049e-02 -1.008506e-01 -1.617601e-01 -2.157136e-01 -2.604982e-01 -2.944447e-01 -3.164747e-01 -3.260955e-01 -3.233571e-01 -3.307469e-01 -3.029664e-01 -2.649445e-01 -2.182713e-01 -1.646926e-01 -1.060576e-01 -4.427956e-02 1.869148e-02 8.088893e-02 1.403476e-01 1.951240e-01 2.433238e-01 2.831411e-01 3.129134e-01 3.311937e-01 3.368400e-01 3.291162e-01 3.077975e-01 2.732642e-01 2.265666e-01 1.694429e-01 1.042739e-01 3.396797e-02 -3.821809e-02 -1.089032e-01 -1.748219e-01 -2.330479e-01 -2.811699e-01 -3.174057e-01 -3.406458e-01 -3.504373e-01 -3.469219e-01 -3.559018e-01 -3.254656e-01 -2.841807e-01 -2.337851e-01 -1.761543e-01 -1.132472e-01 -4.707003e-02 2.034520e-02 8.695460e-02 1.507127e-01 2.095856e-01 2.615725e-01 3.047413e-01 3.372830e-01 3.575886e-01 3.643480e-01 3.566683e-01 3.342001e-01 2.972565e-01 2.469025e-01 1.849896e-01 1.141162e-01 3.750168e-02 -4.122059e-02 -1.182677e-01 -1.899928e-01 -2.531494e-01 -3.050971e-01 -3.439274e-01 -3.685039e-01 -3.784298e-01 -3.739629e-01 -3.835014e-01 -3.501035e-01 -3.052114e-01 -2.507261e-01 -1.886623e-01 -1.210950e-01 -5.012709e-02 2.212589e-02 9.354151e-02 1.619923e-01 2.253506e-01 2.815030e-01 3.283808e-01 3.640141e-01 3.866118e-01 3.946723e-01 3.871190e-01 3.634528e-01 3.238999e-01 2.695304e-01 2.023159e-01 1.250967e-01 4.144504e-02 -4.457432e-02 -1.287172e-01 -2.069001e-01 -2.755137e-01 -3.316629e-01 -3.733055e-01 -3.992865e-01 -4.092844e-01 -4.036974e-01 -4.126293e-01 -3.760518e-01 -3.273229e-01 -2.685151e-01 -2.017875e-01 -1.293323e-01 -5.334833e-02 2.396753e-02 1.004171e-01 1.737930e-01 2.418748e-01 3.024348e-01 3.532630e-01 3.922190e-01 4.173156e-01 4.268405e-01 4.195112e-01 3.946546e-01 3.523898e-01 2.937801e-01 2.209173e-01 1.369010e-01 4.568900e-02 -4.817763e-02 -1.399437e-01 -2.250434e-01 -2.994709e-01 -3.600584e-01 -4.046290e-01 -4.320210e-01 -4.420082e-01 -4.351528e-01 -4.422067e-01 -4.023444e-01 -3.496884e-01 -2.864853e-01 -2.150371e-01 -1.376502e-01 -5.661406e-02 2.579874e-02 1.073202e-01 1.856690e-01 2.585364e-01 3.235839e-01 3.784609e-01 4.208537e-01 4.485721e-01 4.596811e-01 4.526758e-01 4.266909e-01 3.817193e-01 3.188033e-01 2.401502e-01 1.491256e-01 5.009325e-02 -5.189933e-02 -1.515516e-01 -2.437845e-01 -3.241744e-01 -3.892732e-01 -4.367738e-01 -4.655222e-01 -4.754064e-01 -4.671714e-01 -4.710201e-01 -4.279038e-01 -3.713927e-01 -3.039021e-01 -2.278700e-01 -1.457088e-01 -5.979045e-02 2.754565e-02 1.139702e-01 1.971363e-01 2.746556e-01 3.440859e-01 4.029431e-01 4.487446e-01 4.790989e-01 4.918461e-01 4.852522e-01 4.582484e-01 4.106881e-01 3.435788e-01 2.592325e-01 1.612768e-01 5.448428e-02 -5.558120e-02 -1.630611e-01 -2.623524e-01 -3.486094e-01 -4.181070e-01 -4.684188e-01 -4.984131e-01 -5.081065e-01 -4.984384e-01 -4.977728e-01 -4.515878e-01 -3.914715e-01 -3.199953e-01 -2.397202e-01 -1.531525e-01 -6.273530e-02 2.913550e-02 1.200796e-01 2.076949e-01 2.895242e-01 3.630338e-01 4.256178e-01 4.746377e-01 5.075119e-01 5.218649e-01 5.157390e-01 4.878625e-01 4.379436e-01 3.669444e-01 2.772669e-01 1.727832e-01 5.865785e-02 -5.904541e-02 -1.739251e-01 -2.798697e-01 -3.716274e-01 -4.452127e-01 -4.980957e-01 -5.291786e-01 -5.386139e-01 -5.275358e-01 -5.211586e-01 -4.722540e-01 -4.089662e-01 -3.340023e-01 -2.500283e-01 -1.596293e-01 -6.530611e-02 3.050030e-02 1.253695e-01 2.168557e-01 3.024454e-01 3.795285e-01 4.453949e-01 4.972700e-01 5.324043e-01 5.482283e-01 5.425806e-01 5.140005e-01 4.620572e-01 3.876621e-01 2.932895e-01 1.830261e-01 6.238828e-02 -6.210653e-02 -1.835621e-01 -2.954035e-01 -3.920125e-01 -4.691740e-01 -5.242729e-01 -5.562527e-01 -5.653975e-01 -5.530239e-01 -5.399548e-01 -4.888391e-01 -4.229890e-01 -3.452194e-01 -2.582795e-01 -1.648148e-01 -6.737006e-02 3.158058e-02 1.295875e-01 2.241725e-01 3.127798e-01 3.927400e-01 4.612609e-01 5.154592e-01 5.524488e-01 5.695011e-01 5.642849e-01 5.351803e-01 4.816362e-01 4.045157e-01 3.063466e-01 1.913882e-01 6.544576e-02 -6.458711e-02 -1.914022e-01 -3.080394e-01 -4.085774e-01 -4.886148e-01 -5.454728e-01 -5.781359e-01 -5.870031e-01 -5.735454e-01 -5.531231e-01 -5.004453e-01 -4.327928e-01 -3.530565e-01 -2.640423e-01 -1.684371e-01 -6.881482e-02 3.232867e-02 1.325248e-01 2.292743e-01 3.199932e-01 4.019716e-01 4.723610e-01 5.282018e-01 5.665117e-01 5.844489e-01 5.795604e-01 5.501105e-01 4.954594e-01 4.164321e-01 3.155912e-01 1.973173e-01 6.762083e-02 -6.633467e-02 -1.969448e-01 -3.169723e-01 -4.202791e-01 -5.023323e-01 -5.604109e-01 -5.935325e-01 -6.021814e-01 -5.879414e-01 -5.599070e-01 -5.064201e-01 -4.378369e-01 -3.570870e-01 -2.670054e-01 -1.702998e-01 -6.955871e-02 3.271127e-02 1.340323e-01 2.318948e-01 3.237006e-01 4.067197e-01 4.780743e-01 5.347661e-01 5.737628e-01 5.921638e-01 5.874523e-01 5.578317e-01 5.026150e-01 4.226063e-01 3.203853e-01 2.003948e-01 6.875233e-02 -6.723780e-02 -1.998160e-01 -3.216000e-01 -4.263384e-01 -5.094305e-01 -5.681341e-01 -6.014854e-01 -6.100142e-01 -5.953638e-01 -5.599070e-01 -5.064201e-01 -4.378369e-01 -3.570870e-01 -2.670054e-01 -1.702998e-01 -6.955871e-02 3.271127e-02 1.340323e-01 2.318948e-01 3.237006e-01 4.067197e-01 4.780743e-01 5.347661e-01 5.737628e-01 5.921638e-01 5.874522e-01 5.578317e-01 5.026150e-01 4.226063e-01 3.203853e-01 2.003948e-01 6.875233e-02 -6.723780e-02 -1.998160e-01 -3.216000e-01 -4.263384e-01 -5.094305e-01 -5.681341e-01 -6.014854e-01 -6.100142e-01 -5.953638e-01 -5.531231e-01 -5.004453e-01 -4.327928e-01 -3.530565e-01 -2.640423e-01 -1.684371e-01 -6.881482e-02 3.232867e-02 1.325248e-01 2.292743e-01 3.199932e-01 4.019716e-01 4.723610e-01 5.282018e-01 5.665117e-01 5.844489e-01 5.795604e-01 5.501105e-01 4.954594e-01 4.164321e-01 3.155912e-01 1.973173e-01 6.762083e-02 -6.633467e-02 -1.969448e-01 -3.169723e-01 -4.202791e-01 -5.023323e-01 -5.604109e-01 -5.935325e-01 -6.021814e-01 -5.879414e-01 -5.399548e-01 -4.888391e-01 -4.229890e-01 -3.452194e-01 -2.582795e-01 -1.648148e-01 -6.737007e-02 3.158058e-02 1.295875e-01 2.241725e-01 3.127798e-01 3.927400e-01 4.612609e-01 5.154592e-01 5.524488e-01 5.695011e-01 5.642849e-01 5.351803e-01 4.816362e-01 4.045157e-01 3.063466e-01 1.913882e-01 6.544576e-02 -6.458711e-02 -1.914022e-01 -3.080394e-01 -4.085774e-01 -4.886148e-01 -5.454728e-01 -5.781359e-01 -5.870031e-01 -5.735454e-01 -5.211586e-01 -4.722540e-01 -4.089662e-01 -3.340023e-01 -2.500283e-01 -1.596293e-01 -6.530611e-02 3.050030e-02 1.253695e-01 2.168557e-01 3.024454e-01 3.795285e-01 4.453949e-01 4.972700e-01 5.324043e-01 5.482283e-01 5.425806e-01 5.140005e-01 4.620572e-01 3.876621e-01 2.932895e-01 1.830261e-01 6.238828e-02 -6.210653e-02 -1.835621e-01 -2.954035e-01 -3.920125e-01 -4.691740e-01 -5.242729e-01 -5.562527e-01 -5.653975e-01 -5.530239e-01 -4.977728e-01 -4.515878e-01 -3.914715e-01 -3.199953e-01 -2.397202e-01 -1.531525e-01 -6.273530e-02 2.913550e-02 1.200796e-01 2.076949e-01 2.895242e-01 3.630338e-01 4.256178e-01 4.746377e-01 5.075119e-01 5.218649e-01 5.157390e-01 4.878625e-01 4.379436e-01 3.669444e-01 2.772669e-01 1.727832e-01 5.865785e-02 -5.904541e-02 -1.739251e-01 -2.798697e-01 -3.716274e-01 -4.452127e-01 -4.980957e-01 -5.291786e-01 -5.386139e-01 -5.275358e-01 -4.710201e-01 -4.279038e-01 -3.713927e-01 -3.039021e-01 -2.278700e-01 -1.457088e-01 -5.979045e-02 2.754565e-02 1.139702e-01 1.971363e-01 2.746556e-01 3.440859e-01 4.029431e-01 4.487446e-01 4.790989e-01 4.918461e-01 4.852522e-01 4.582484e-01 4.106881e-01 3.435788e-01 2.592325e-01 1.612768e-01 5.448428e-02 -5.558120e-02 -1.630611e-01 -2.623524e-01 -3.486094e-01 -4.181070e-01 -4.684188e-01 -4.984131e-01 -5.081065e-01 -4.984384e-01 -4.422067e-01 -4.023444e-01 -3.496884e-01 -2.864853e-01 -2.150371e-01 -1.376502e-01 -5.661406e-02 2.579874e-02 1.073202e-01 1.856690e-01 2.585364e-01 3.235839e-01 3.784609e-01 4.208537e-01 4.485721e-01 4.596811e-01 4.526758e-01 4.266909e-01 3.817193e-01 3.188033e-01 2.401502e-01 1.491256e-01 5.009325e-02 -5.189933e-02 -1.515516e-01 -2.437845e-01 -3.241744e-01 -3.892732e-01 -4.367738e-01 -4.655222e-01 -4.754064e-01 -4.671714e-01 -4.126293e-01 -3.760518e-01 -3.273229e-01 -2.685151e-01 -2.017875e-01 -1.293323e-01 -5.334833e-02 2.396753e-02 1.004171e-01 1.737930e-01 2.418748e-01 3.024348e-01 3.532630e-01 3.922190e-01 4.173156e-01 4.268405e-01 4.195112e-01 3.946546e-01 3.523898e-01 2.937801e-01 2.209173e-01 1.369010e-01 4.568900e-02 -4.817763e-02 -1.399437e-01 -2.250434e-01 -2.994709e-01 -3.600584e-01 -4.046290e-01 -4.320210e-01 -4.420082e-01 -4.351528e-01 -3.835014e-01 -3.501035e-01 -3.052114e-01 -2.507261e-01 -1.886623e-01 -1.210950e-01 -5.012709e-02 2.212589e-02 9.354151e-02 1.619923e-01 2.253506e-01 2.815030e-01 3.283808e-01 3.640141e-01 3.866118e-01 3.946723e-01 3.871190e-01 3.634528e-01 3.238999e-01 2.695304e-01 2.023159e-01 1.250967e-01 4.144504e-02 -4.457432e-02 -1.287172e-01 -2.069001e-01 -2.755137e-01 -3.316629e-01 -3.733055e-01 -3.992865e-01 -4.092844e-01 -4.036974e-01 -3.559018e-01 -3.254656e-01 -2.841807e-01 -2.337851e-01 -1.761543e-01 -1.132472e-01 -4.707003e-02 2.034520e-02 8.695460e-02 1.507127e-01 2.095856e-01 2.615725e-01 3.047413e-01 3.372830e-01 3.575886e-01 3.643480e-01 3.566683e-01 3.342001e-01 2.972565e-01 2.469025e-01 1.849896e-01 1.141162e-01 3.750168e-02 -4.122059e-02 -1.182677e-01 -1.899928e-01 -2.531494e-01 -3.050971e-01 -3.439274e-01 -3.685039e-01 -3.784298e-01 -3.739629e-01 -3.307469e-01 -3.029664e-01 -2.649445e-01 -2.182713e-01 -1.646926e-01 -1.060576e-01 -4.427956e-02 1.869148e-02 8.088893e-02 1.403476e-01 1.951240e-01 2.433238e-01 2.831411e-01 3.129134e-01 3.311937e-01 3.368400e-01 3.291162e-01 3.077975e-01 2.732642e-01 2.265666e-01 1.694429e-01 1.042739e-01 3.396797e-02 -3.821809e-02 -1.089032e-01 -1.748219e-01 -2.330479e-01 -2.811699e-01 -3.174057e-01 -3.406458e-01 -3.504373e-01 -3.469219e-01 -3.087823e-01 -2.832862e-01 -2.480942e-01 -2.046669e-01 -1.546357e-01 -9.975060e-02 -4.183962e-02 1.722311e-02 7.554320e-02 1.312300e-01 1.824228e-01 2.273231e-01 2.642368e-01 2.916286e-01 3.081903e-01 3.129206e-01 3.052129e-01 2.849417e-01 2.525367e-01 2.090283e-01 1.560529e-01 9.580366e-02 3.092570e-02 -3.564049e-02 -1.008506e-01 -1.617601e-01 -2.157136e-01 -2.604982e-01 -2.944447e-01 -3.164747e-01 -3.260955e-01 -3.233571e-01 -2.905894e-01 -2.669609e-01 -2.340989e-01 -1.933571e-01 -1.462707e-01 -9.450558e-02 -3.981621e-02 1.598943e-02 7.108004e-02 1.236299e-01 1.718497e-01 2.140223e-01 2.485472e-01 2.739940e-01 2.891671e-01 2.931780e-01 2.855216e-01 2.661482e-01 2.355220e-01 1.946523e-01 1.450891e-01 8.887212e-02 2.843421e-02 -3.353764e-02 -9.426849e-02 -1.510709e-01 -2.015087e-01 -2.435309e-01 -2.755648e-01 -2.965624e-01 -3.060047e-01 -3.038719e-01 -2.766004e-01 -2.543928e-01 -2.233137e-01 -1.846348e-01 -1.398168e-01 -9.045942e-02 -3.825881e-02 1.502993e-02 6.762614e-02 1.177560e-01 1.636868e-01 2.037653e-01 2.364633e-01 2.604310e-01 2.745578e-01 2.780396e-01 2.704458e-01 2.517810e-01 2.225321e-01 1.836894e-01 1.367352e-01 8.359271e-02 2.653490e-02 -3.194097e-02 -8.926128e-02 -1.429312e-01 -1.906796e-01 -2.305793e-01 -2.611326e-01 -2.813180e-01 -2.906002e-01 -2.889098e-01 -2.671175e-01 -2.458655e-01 -2.159907e-01 -1.787092e-01 -1.354309e-01 -8.771002e-02 -3.720229e-02 1.437407e-02 6.527376e-02 1.137592e-01 1.581368e-01 1.967973e-01 2.282619e-01 2.512350e-01 2.646633e-01 2.677982e-01 2.602581e-01 2.420826e-01 2.137719e-01 1.763021e-01 1.311093e-01 8.003826e-02 2.525515e-02 -3.086878e-02 -8.589361e-02 -1.374526e-01 -1.833848e-01 -2.218464e-01 -2.513911e-01 -2.710169e-01 -2.801794e-01 -2.787773e-01 -2.623304e-01 -2.415585e-01 -2.122903e-01 -1.757139e-01 -1.332135e-01 -8.632007e-02 -3.666870e-02 1.404130e-02 6.408286e-02 1.117369e-01 1.553300e-01 1.932752e-01 2.241187e-01 2.465923e-01 2.596711e-01 2.626345e-01 2.551250e-01 2.371992e-01 2.093635e-01 1.725864e-01 1.282806e-01 7.825131e-02 2.461142e-02 -3.033068e-02 -8.420173e-02 -1.346989e-01 -1.797163e-01 -2.174522e-01 -2.464864e-01 -2.658270e-01 -2.749255e-01 -2.736654e-01 -2.671175e-01 -2.458655e-01 -2.159907e-01 -1.787092e-01 -1.354309e-01 -8.771002e-02 -3.720229e-02 1.437407e-02 6.527377e-02 1.137592e-01 1.581368e-01 1.967973e-01 2.282619e-01 2.512350e-01 2.646633e-01 2.677982e-01 2.602581e-01 2.420826e-01 2.137719e-01 1.763021e-01 1.311093e-01 8.003826e-02 2.525515e-02 -3.086878e-02 -8.589360e-02 -1.374526e-01 -1.833848e-01 -2.218464e-01 -2.513911e-01 -2.710169e-01 -2.801793e-01 -2.787773e-01 -2.721564e-01 -2.503904e-01 -2.198716e-01 -1.818459e-01 -1.377501e-01 -8.916247e-02 -3.775944e-02 1.472182e-02 6.651799e-02 1.158730e-01 1.610732e-01 2.004863e-01 2.326078e-01 2.561130e-01 2.699181e-01 2.732442e-01 2.656826e-01 2.472532e-01 2.184480e-01 1.802497e-01 1.341184e-01 8.194057e-02 2.593997e-02 -3.144393e-02 -8.769857e-02 -1.403875e-01 -1.872901e-01 -2.265174e-01 -2.565958e-01 -2.765137e-01 -2.857324e-01 -2.841690e-01 -2.821463e-01 -2.593556e-01 -2.275567e-01 -1.880548e-01 -1.423399e-01 -9.203691e-02 -3.886316e-02 1.540750e-02 6.897679e-02 1.200528e-01 1.668823e-01 2.077887e-01 2.412157e-01 2.657817e-01 2.803415e-01 2.840550e-01 2.764591e-01 2.575332e-01 2.277513e-01 1.881080e-01 1.401110e-01 8.572988e-02 2.730335e-02 -3.259181e-02 -9.129691e-02 -1.462355e-01 -1.950670e-01 -2.358129e-01 -2.669459e-01 -2.874360e-01 -2.967580e-01 -2.948661e-01 -2.969030e-01 -2.725848e-01 -2.388872e-01 -1.972028e-01 -1.490997e-01 -9.627052e-02 -4.049146e-02 1.641129e-02 7.258962e-02 1.262003e-01 1.754336e-01 2.185478e-01 2.539116e-01 2.800585e-01 2.957514e-01 3.000584e-01 2.924323e-01 2.727894e-01 2.415736e-01 1.997951e-01 1.490298e-01 9.137144e-02 2.933157e-02 -3.430572e-02 -9.666068e-02 -1.549454e-01 -2.066389e-01 -2.496296e-01 -2.823114e-01 -3.036302e-01 -3.130841e-01 -3.106858e-01 -3.161297e-01 -2.897968e-01 -2.536113e-01 -2.090799e-01 -1.578714e-01 -1.017646e-01 -4.260930e-02 1.770309e-02 7.726277e-02 1.341628e-01 1.865224e-01 2.325172e-01 2.704190e-01 2.986503e-01 3.158529e-01 3.209707e-01 3.133424e-01 2.927953e-01 2.597281e-01 2.151659e-01 1.607720e-01 9.880298e-02 3.200110e-02 -3.657112e-02 -1.037364e-01 -1.664226e-01 -2.218682e-01 -2.677858e-01 -3.024693e-01 -3.248381e-01 -3.344265e-01 -3.313307e-01 -3.393960e-01 -3.105882e-01 -2.713710e-01 -2.233897e-01 -1.684328e-01 -1.083801e-01 -4.516656e-02 1.924231e-02 8.286686e-02 1.437276e-01 1.998619e-01 2.493482e-01 2.903430e-01 3.211342e-01 3.402139e-01 3.463705e-01 3.387963e-01 3.172016e-01 2.819204e-01 2.339881e-01 1.751703e-01 1.079228e-01 3.527512e-02 -3.936027e-02 -1.124311e-01 -1.805080e-01 -2.405293e-01 -2.899924e-01 -3.270729e-01 -3.506662e-01 -3.603608e-01 -3.563631e-01 -3.661140e-01 -3.344144e-01 -2.916878e-01 -2.397384e-01 -1.804897e-01 -1.159332e-01 -4.809580e-02 2.097799e-02 8.923459e-02 1.546173e-01 2.150748e-01 2.685784e-01 3.131543e-01 3.469355e-01 3.682388e-01 3.756667e-01 3.682328e-01 3.454997e-01 3.077136e-01 2.559108e-01 1.919685e-01 1.185744e-01 3.909887e-02 -4.262572e-02 -1.225955e-01 -1.969523e-01 -2.622770e-01 -3.158159e-01 -3.556141e-01 -3.805502e-01 -3.902887e-01 -3.851771e-01 -3.955183e-01 -3.605751e-01 -3.139521e-01 -2.576280e-01 -1.936719e-01 -1.241923e-01 -5.131045e-02 2.284943e-02 9.616011e-02 1.664872e-01 2.316885e-01 2.896224e-01 3.381749e-01 3.753086e-01 3.991433e-01 4.080684e-01 4.008875e-01 3.769841e-01 3.364905e-01 2.804296e-01 2.107940e-01 1.305289e-01 4.339395e-02 -4.629334e-02 -1.340052e-01 -2.153869e-01 -2.866099e-01 -3.446399e-01 -3.873843e-01 -4.137178e-01 -4.234072e-01 -4.169719e-01 -4.266535e-01 -3.882065e-01 -3.374191e-01 -2.764548e-01 -2.075320e-01 -1.328772e-01 -5.470399e-02 2.478761e-02 1.034007e-01 1.789269e-01 2.491349e-01 3.117701e-01 3.645732e-01 4.053271e-01 4.319387e-01 4.425624e-01 4.357643e-01 4.107196e-01 3.674194e-01 3.068545e-01 2.311304e-01 1.434668e-01 4.805173e-02 -5.025644e-02 -1.463428e-01 -2.352973e-01 -3.128387e-01 -3.756301e-01 -4.214414e-01 -4.491606e-01 -4.586842e-01 -4.507345e-01 -4.583783e-01 -4.162879e-01 -3.612172e-01 -2.955164e-01 -2.215521e-01 -1.416636e-01 -5.815085e-02 2.671745e-02 1.106821e-01 1.914678e-01 2.667601e-01 3.341955e-01 3.913714e-01 4.358878e-01 4.654311e-01 4.779067e-01 4.716234e-01 4.455234e-01 3.994316e-01 3.342866e-01 2.522966e-01 1.569630e-01 5.292672e-02 -5.437282e-02 -1.591863e-01 -2.560048e-01 -3.400642e-01 -4.077133e-01 -4.565915e-01 -4.856204e-01 -4.948522e-01 -4.852386e-01 -4.893909e-01 -4.436678e-01 -3.843712e-01 -3.140326e-01 -2.351583e-01 -1.501919e-01 -6.150959e-02 2.856087e-02 1.177076e-01 2.035978e-01 2.838434e-01 3.559805e-01 4.174705e-01 4.657364e-01 4.982456e-01 5.126509e-01 5.069953e-01 4.799728e-01 4.312235e-01 3.616141e-01 2.734407e-01 1.704799e-01 5.783156e-02 -5.846683e-02 -1.720085e-01 -2.766646e-01 -3.671766e-01 -4.395803e-01 -4.913976e-01 -5.216038e-01 -5.304282e-01 -5.190683e-01 -5.182814e-01 -4.691110e-01 -4.058437e-01 -3.311780e-01 -2.477464e-01 -1.580831e-01 -6.462889e-02 3.024054e-02 1.241714e-01 2.147842e-01 2.996288e-01 3.761536e-01 4.416973e-01 4.935191e-01 5.288800e-01 5.451904e-01 5.402323e-01 5.124511e-01 4.612938e-01 3.875410e-01 2.935577e-01 1.833760e-01 6.253690e-02 -6.233740e-02 -1.841925e-01 -2.962890e-01 -3.928868e-01 -4.697250e-01 -5.242258e-01 -5.554343e-01 -5.637676e-01 -5.506729e-01 -5.436128e-01 -4.913696e-01 -4.245939e-01 -3.461293e-01 -2.587149e-01 -1.649599e-01 -6.735621e-02 3.168394e-02 1.297755e-01 2.245033e-01 3.133682e-01 3.937457e-01 4.628706e-01 5.178597e-01 5.557914e-01 5.738581e-01 5.696028e-01 5.412388e-01 4.880271e-01 4.106567e-01 3.115419e-01 1.949371e-01 6.678000e-02 -6.577185e-02 -1.950668e-01 -3.138021e-01 -4.157971e-01 -4.965272e-01 -5.533359e-01 -5.853460e-01 -5.931583e-01 -5.784558e-01 -5.640253e-01 -5.092719e-01 -4.396510e-01 -3.581219e-01 -2.675071e-01 -1.704728e-01 -6.954864e-02 3.282740e-02 1.342487e-01 2.322752e-01 3.243711e-01 4.078569e-01 4.798855e-01 5.374602e-01 5.775113e-01 5.970518e-01 5.934257e-01 5.646496e-01 5.098230e-01 4.295497e-01 3.262760e-01 2.044331e-01 7.028498e-02 -6.856417e-02 -2.039602e-01 -3.281263e-01 -4.345133e-01 -5.183818e-01 -5.770184e-01 -6.096206e-01 -6.169506e-01 -6.008926e-01 -5.783543e-01 -5.218207e-01 -4.501930e-01 -3.665109e-01 -2.736543e-01 -1.743276e-01 -7.108481e-02 3.361973e-02 1.373663e-01 2.376990e-01 3.320585e-01 4.177280e-01 4.918044e-01 5.512117e-01 5.927760e-01 6.133825e-01 6.102319e-01 5.811976e-01 5.252598e-01 4.429563e-01 3.367509e-01 2.111981e-01 7.279377e-02 -7.053579e-02 -2.102725e-01 -3.382953e-01 -4.477889e-01 -5.338616e-01 -5.937641e-01 -6.267529e-01 -6.337106e-01 -6.166690e-01 -5.857452e-01 -5.282875e-01 -4.556216e-01 -3.708286e-01 -2.768172e-01 -1.763110e-01 -7.187625e-02 3.402511e-02 1.389671e-01 2.404864e-01 3.360120e-01 4.228085e-01 4.979441e-01 5.583023e-01 6.006553e-01 6.218217e-01 6.189274e-01 5.897700e-01 5.332664e-01 4.499183e-01 3.421970e-01 2.147199e-01 7.410394e-02 -7.155596e-02 -2.135503e-01 -3.435770e-01 -4.546807e-01 -5.418909e-01 -6.024407e-01 -6.356195e-01 -6.423743e-01 -6.248150e-01 -5.857452e-01 -5.282875e-01 -4.556216e-01 -3.708286e-01 -2.768172e-01 -1.763110e-01 -7.187625e-02 3.402511e-02 1.389671e-01 2.404864e-01 3.360120e-01 4.228085e-01 4.979441e-01 5.583023e-01 6.006553e-01 6.218217e-01 6.189274e-01 5.897700e-01 5.332664e-01 4.499183e-01 3.421970e-01 2.147199e-01 7.410394e-02 -7.155596e-02 -2.135503e-01 -3.435770e-01 -4.546807e-01 -5.418909e-01 -6.024407e-01 -6.356195e-01 -6.423743e-01 -6.248150e-01 -5.783543e-01 -5.218207e-01 -4.501930e-01 -3.665109e-01 -2.736543e-01 -1.743276e-01 -7.108481e-02 3.361973e-02 1.373663e-01 2.376990e-01 3.320585e-01 4.177280e-01 4.918044e-01 5.512117e-01 5.927760e-01 6.133825e-01 6.102319e-01 5.811976e-01 5.252598e-01 4.429563e-01 3.367509e-01 2.111981e-01 7.279377e-02 -7.053579e-02 -2.102725e-01 -3.382953e-01 -4.477889e-01 -5.338616e-01 -5.937641e-01 -6.267529e-01 -6.337106e-01 -6.166690e-01 -5.640253e-01 -5.092719e-01 -4.396510e-01 -3.581219e-01 -2.675071e-01 -1.704728e-01 -6.954864e-02 3.282740e-02 1.342487e-01 2.322752e-01 3.243711e-01 4.078569e-01 4.798855e-01 5.374602e-01 5.775113e-01 5.970518e-01 5.934257e-01 5.646496e-01 5.098230e-01 4.295497e-01 3.262760e-01 2.044331e-01 7.028498e-02 -6.856417e-02 -2.039602e-01 -3.281263e-01 -4.345133e-01 -5.183818e-01 -5.770184e-01 -6.096206e-01 -6.169506e-01 -6.008926e-01 -5.436128e-01 -4.913696e-01 -4.245939e-01 -3.461293e-01 -2.587149e-01 -1.649599e-01 -6.735621e-02 3.168394e-02 1.297755e-01 2.245033e-01 3.133682e-01 3.937457e-01 4.628706e-01 5.178597e-01 5.557914e-01 5.738581e-01 5.696028e-01 5.412388e-01 4.880271e-01 4.106567e-01 3.115419e-01 1.949371e-01 6.678000e-02 -6.577185e-02 -1.950668e-01 -3.138021e-01 -4.157971e-01 -4.965272e-01 -5.533359e-01 -5.853460e-01 -5.931583e-01 -5.784558e-01 -5.182814e-01 -4.691110e-01 -4.058437e-01 -3.311780e-01 -2.477464e-01 -1.580831e-01 -6.462889e-02 3.024054e-02 1.241714e-01 2.147842e-01 2.996288e-01 3.761536e-01 4.416973e-01 4.935191e-01 5.288800e-01 5.451904e-01 5.402323e-01 5.124511e-01 4.612938e-01 3.875410e-01 2.935577e-01 1.833760e-01 6.253690e-02 -6.233740e-02 -1.841925e-01 -2.962890e-01 -3.928868e-01 -4.697250e-01 -5.242258e-01 -5.554343e-01 -5.637676e-01 -5.506729e-01 -4.893909e-01 -4.436678e-01 -3.843712e-01 -3.140326e-01 -2.351583e-01 -1.501919e-01 -6.150959e-02 2.856087e-02 1.177076e-01 2.035978e-01 2.838434e-01 3.559805e-01 4.174705e-01 4.657364e-01 4.982456e-01 5.126509e-01 5.069953e-01 4.799728e-01 4.312235e-01 3.616141e-01 2.734407e-01 1.704799e-01 5.783156e-02 -5.846683e-02 -1.720085e-01 -2.766646e-01 -3.671766e-01 -4.395803e-01 -4.913976e-01 -5.216038e-01 -5.304282e-01 -5.190683e-01 -4.583783e-01 -4.162879e-01 -3.612172e-01 -2.955164e-01 -2.215521e-01 -1.416636e-01 -5.815084e-02 2.671745e-02 1.106821e-01 1.914678e-01 2.667601e-01 3.341955e-01 3.913714e-01 4.358878e-01 4.654311e-01 4.779067e-01 4.716234e-01 4.455234e-01 3.994316e-01 3.342866e-01 2.522966e-01 1.569630e-01 5.292672e-02 -5.437282e-02 -1.591863e-01 -2.560048e-01 -3.400642e-01 -4.077133e-01 -4.565915e-01 -4.856204e-01 -4.948522e-01 -4.852386e-01 -4.266535e-01 -3.882065e-01 -3.374191e-01 -2.764548e-01 -2.075320e-01 -1.328772e-01 -5.470399e-02 2.478761e-02 1.034007e-01 1.789269e-01 2.491349e-01 3.117701e-01 3.645732e-01 4.053271e-01 4.319387e-01 4.425624e-01 4.357643e-01 4.107196e-01 3.674194e-01 3.068545e-01 2.311304e-01 1.434668e-01 4.805173e-02 -5.025644e-02 -1.463428e-01 -2.352973e-01 -3.128387e-01 -3.756301e-01 -4.214414e-01 -4.491606e-01 -4.586842e-01 -4.507345e-01 -3.955183e-01 -3.605751e-01 -3.139521e-01 -2.576280e-01 -1.936719e-01 -1.241923e-01 -5.131045e-02 2.284943e-02 9.616011e-02 1.664872e-01 2.316885e-01 2.896224e-01 3.381749e-01 3.753086e-01 3.991433e-01 4.080684e-01 4.008875e-01 3.769841e-01 3.364905e-01 2.804296e-01 2.107940e-01 1.305289e-01 4.339395e-02 -4.629334e-02 -1.340052e-01 -2.153869e-01 -2.866099e-01 -3.446399e-01 -3.873843e-01 -4.137179e-01 -4.234072e-01 -4.169719e-01 -3.661140e-01 -3.344144e-01 -2.916878e-01 -2.397384e-01 -1.804897e-01 -1.159332e-01 -4.809580e-02 2.097799e-02 8.923459e-02 1.546173e-01 2.150748e-01 2.685784e-01 3.131543e-01 3.469355e-01 3.682388e-01 3.756667e-01 3.682328e-01 3.454997e-01 3.077136e-01 2.559108e-01 1.919685e-01 1.185744e-01 3.909887e-02 -4.262572e-02 -1.225955e-01 -1.969523e-01 -2.622770e-01 -3.158159e-01 -3.556141e-01 -3.805502e-01 -3.902887e-01 -3.851771e-01 -3.393960e-01 -3.105882e-01 -2.713710e-01 -2.233897e-01 -1.684328e-01 -1.083801e-01 -4.516656e-02 1.924231e-02 8.286686e-02 1.437276e-01 1.998619e-01 2.493482e-01 2.903430e-01 3.211342e-01 3.402139e-01 3.463705e-01 3.387963e-01 3.172016e-01 2.819204e-01 2.339881e-01 1.751703e-01 1.079228e-01 3.527512e-02 -3.936027e-02 -1.124311e-01 -1.805080e-01 -2.405293e-01 -2.899924e-01 -3.270729e-01 -3.506662e-01 -3.603608e-01 -3.563631e-01 -3.161297e-01 -2.897968e-01 -2.536113e-01 -2.090799e-01 -1.578714e-01 -1.017646e-01 -4.260930e-02 1.770309e-02 7.726277e-02 1.341628e-01 1.865224e-01 2.325172e-01 2.704190e-01 2.986503e-01 3.158529e-01 3.209707e-01 3.133424e-01 2.927953e-01 2.597281e-01 2.151659e-01 1.607720e-01 9.880298e-02 3.200110e-02 -3.657112e-02 -1.037364e-01 -1.664226e-01 -2.218682e-01 -2.677858e-01 -3.024693e-01 -3.248381e-01 -3.344265e-01 -3.313307e-01 -2.969030e-01 -2.725848e-01 -2.388872e-01 -1.972028e-01 -1.490997e-01 -9.627052e-02 -4.049145e-02 1.641129e-02 7.258962e-02 1.262003e-01 1.754336e-01 2.185478e-01 2.539116e-01 2.800585e-01 2.957514e-01 3.000584e-01 2.924323e-01 2.727894e-01 2.415736e-01 1.997951e-01 1.490298e-01 9.137144e-02 2.933157e-02 -3.430572e-02 -9.666068e-02 -1.549454e-01 -2.066389e-01 -2.496296e-01 -2.823114e-01 -3.036302e-01 -3.130841e-01 -3.106858e-01 -2.821463e-01 -2.593556e-01 -2.275567e-01 -1.880548e-01 -1.423399e-01 -9.203691e-02 -3.886316e-02 1.540750e-02 6.897679e-02 1.200528e-01 1.668823e-01 2.077887e-01 2.412157e-01 2.657817e-01 2.803415e-01 2.840550e-01 2.764591e-01 2.575332e-01 2.277513e-01 1.881080e-01 1.401110e-01 8.572988e-02 2.730335e-02 -3.259181e-02 -9.129691e-02 -1.462355e-01 -1.950670e-01 -2.358129e-01 -2.669459e-01 -2.874360e-01 -2.967580e-01 -2.948661e-01 -2.721564e-01 -2.503904e-01 -2.198716e-01 -1.818459e-01 -1.377501e-01 -8.916247e-02 -3.775944e-02 1.472182e-02 6.651799e-02 1.158730e-01 1.610732e-01 2.004863e-01 2.326078e-01 2.561130e-01 2.699181e-01 2.732442e-01 2.656826e-01 2.472532e-01 2.184480e-01 1.802497e-01 1.341184e-01 8.194057e-02 2.593997e-02 -3.144393e-02 -8.769857e-02 -1.403875e-01 -1.872901e-01 -2.265174e-01 -2.565958e-01 -2.765137e-01 -2.857324e-01 -2.841690e-01 -2.671175e-01 -2.458655e-01 -2.159907e-01 -1.787092e-01 -1.354309e-01 -8.771002e-02 -3.720229e-02 1.437407e-02 6.527376e-02 1.137592e-01 1.581368e-01 1.967973e-01 2.282619e-01 2.512350e-01 2.646633e-01 2.677982e-01 2.602581e-01 2.420826e-01 2.137719e-01 1.763021e-01 1.311093e-01 8.003826e-02 2.525515e-02 -3.086878e-02 -8.589361e-02 -1.374526e-01 -1.833848e-01 -2.218464e-01 -2.513911e-01 -2.710169e-01 -2.801794e-01 -2.787773e-01 -2.766004e-01 -2.543928e-01 -2.233137e-01 -1.846348e-01 -1.398168e-01 -9.045942e-02 -3.825881e-02 1.502993e-02 6.762614e-02 1.177560e-01 1.636868e-01 2.037653e-01 2.364633e-01 2.604310e-01 2.745578e-01 2.780396e-01 2.704458e-01 2.517810e-01 2.225321e-01 1.836894e-01 1.367352e-01 8.359271e-02 2.653490e-02 -3.194097e-02 -8.926129e-02 -1.429312e-01 -1.906796e-01 -2.305793e-01 -2.611326e-01 -2.813180e-01 -2.906002e-01 -2.889098e-01 -2.821463e-01 -2.593556e-01 -2.275567e-01 -1.880548e-01 -1.423399e-01 -9.203691e-02 -3.886316e-02 1.540750e-02 6.897679e-02 1.200528e-01 1.668823e-01 2.077887e-01 2.412157e-01 2.657817e-01 2.803415e-01 2.840550e-01 2.764591e-01 2.575332e-01 2.277513e-01 1.881080e-01 1.401110e-01 8.572988e-02 2.730335e-02 -3.259181e-02 -9.129691e-02 -1.462355e-01 -1.950670e-01 -2.358129e-01 -2.669459e-01 -2.874360e-01 -2.967580e-01 -2.948661e-01 -2.931579e-01 -2.692015e-01 -2.359689e-01 -1.948318e-01 -1.473380e-01 -9.516168e-02 -4.006150e-02 1.615252e-02 7.164811e-02 1.245982e-01 1.732103e-01 2.157611e-01 2.506398e-01 2.764012e-01 2.918305e-01 2.960158e-01 2.884274e-01 2.689926e-01 2.381578e-01 1.969252e-01 1.468512e-01 8.999821e-02 2.883725e-02 -3.389456e-02 -9.536653e-02 -1.528375e-01 -2.038268e-01 -2.462539e-01 -2.785327e-01 -2.996184e-01 -3.090073e-01 -3.067032e-01 -3.094639e-01 -2.837620e-01 -2.483954e-01 -2.048341e-01 -1.547109e-01 -9.977088e-02 -4.183202e-02 1.724448e-02 7.557846e-02 1.312931e-01 1.825396e-01 2.275275e-01 2.645657e-01 2.921153e-01 3.088565e-01 3.137690e-01 3.062203e-01 2.860556e-01 2.536759e-01 2.100899e-01 1.569246e-01 9.638085e-02 3.112925e-02 -3.584906e-02 -1.014611e-01 -1.627150e-01 -2.169179e-01 -2.618362e-01 -2.957991e-01 -3.177430e-01 -3.272019e-01 -3.242575e-01 -3.307812e-01 -3.027629e-01 -2.645867e-01 -2.178513e-01 -1.642990e-01 -1.057646e-01 -4.413955e-02 1.865199e-02 8.067153e-02 1.399814e-01 1.946625e-01 2.428400e-01 2.827191e-01 3.126383e-01 3.311389e-01 3.370535e-01 3.296087e-01 3.085336e-01 2.741604e-01 2.274990e-01 1.702646e-01 1.048403e-01 3.416508e-02 -3.844918e-02 -1.095526e-01 -1.758123e-01 -2.342498e-01 -2.824285e-01 -3.185694e-01 -3.415920e-01 -3.510890e-01 