<VTKFile type="RectilinearGrid">
<RectilinearGrid WholeExtent="0 32 0 32 0 32" GhostLevel="0">
<Piece Extent="0 32 0 32 0 32">
<CellData Scalars="p phase" Vectors="vel">
<DataArray type="Float32" Name="p">
-2.360915e-01 -2.053715e-01 -1.682132e-01 -1.259733e-01 -8.011951e-02 -3.219572e-02 1.620696e-02 6.347828e-02 1.080174e-01 1.482648e-01 1.827393e-01 2.100835e-01 2.291160e-01 2.388916e-01 2.387655e-01 2.284571e-01 2.081050e-01 1.783047e-01 1.401207e-01 9.506302e-02 4.502661e-02 -7.806898e-03 -6.109622e-02 -1.124842e-01 -1.597416e-01 -2.008960e-01 -2.343309e-01 -2.588502e-01 -2.737041e-01 -2.785825e-01 -2.735838e-01 -2.591659e-01 -2.401019e-01 -2.087461e-01 -1.708717e-01 -1.278605e-01 -8.120137e-02 -3.245692e-02 1.676535e-02 6.483960e-02 1.101488e-01 1.511156e-01 1.862387e-01 2.141373e-01 2.336043e-01 2.436672e-01 2.436548e-01 2.332634e-01 2.126156e-01 1.823023e-01 1.433969e-01 9.743493e-02 4.635249e-02 -7.613667e-03 -6.205806e-02 -1.145563e-01 -1.628160e-01 -2.048114e-01 -2.388875e-01 -2.638266e-01 -2.788739e-01 -2.837289e-01 -2.785105e-01 -2.637038e-01 -2.480391e-01 -2.154224e-01 -1.761302e-01 -1.315936e-01 -8.334326e-02 -3.297767e-02 1.786376e-02 6.752485e-02 1.143573e-01 1.567490e-01 1.931587e-01 2.221597e-01 2.424937e-01 2.531338e-01 2.533551e-01 2.428072e-01 2.215803e-01 1.902540e-01 1.499194e-01 1.021615e-01 4.899883e-02 -7.221667e-03 -6.396564e-02 -1.186738e-01 -1.689268e-01 -2.125924e-01 -2.479390e-01 -2.737064e-01 -2.891310e-01 -2.939327e-01 -2.882721e-01 -2.726896e-01 -2.597306e-01 -2.252503e-01 -1.838687e-01 -1.370882e-01 -8.649993e-02 -3.375386e-02 1.946536e-02 7.145849e-02 1.205325e-01 1.650252e-01 2.033374e-01 2.339750e-01 2.556034e-01 2.671141e-01 2.677011e-01 2.569425e-01 2.348769e-01 2.020650e-01 1.596213e-01 1.092034e-01 5.295243e-02 -6.619435e-03 -6.678368e-02 -1.247776e-01 -1.779904e-01 -2.241302e-01 -2.613518e-01 -2.883332e-01 -3.043005e-01 -3.090068e-01 -3.026773e-01 -2.859368e-01 -2.749048e-01 -2.379949e-01 -1.938995e-01 -1.442120e-01 -9.060005e-02 -3.477743e-02 2.151522e-02 7.652558e-02 1.285051e-01 1.757288e-01 2.165233e-01 2.493073e-01 2.726465e-01 2.853239e-01 2.864245e-01 2.754278e-01 2.523003e-01 2.175725e-01 1.723853e-01 1.184896e-01 5.818733e-02 -5.789311e-03 -7.045204e-02 -1.327654e-01 -1.898626e-01 -2.392395e-01 -2.789012e-01 -3.074478e-01 -3.240964e-01 -3.286487e-01 -3.214201e-01 -3.031497e-01 -2.931782e-01 -2.533267e-01 -2.059602e-01 -1.527801e-01 -9.554250e-02 -3.603427e-02 2.394086e-02 8.257082e-02 1.380439e-01 1.885625e-01 2.323660e-01 2.677688e-01 2.932148e-01 3.073530e-01 3.091310e-01 2.979025e-01 2.735378e-01 2.365226e-01 1.880239e-01 1.299023e-01 6.465655e-02 -4.708103e-03 -7.487875e-02 -1.424781e-01 -2.043193e-01 -2.576342e-01 -3.002455e-01 -3.306619e-01 -3.480963e-01 -3.524181e-01 -3.440606e-01 -3.239075e-01 -3.140434e-01 -2.708120e-01 -2.197068e-01 -1.625495e-01 -1.011928e-01 -3.750159e-02 2.665378e-02 8.939850e-02 1.488538e-01 2.031430e-01 2.504088e-01 2.888470e-01 3.167614e-01 3.326433e-01 3.352756e-01 3.238578e-01 2.981387e-01 2.585412e-01 2.062530e-01 1.432569e-01 7.228007e-02 -3.350001e-03 -7.993341e-02 -1.536843e-01 -2.210335e-01 -2.789007e-01 -3.248961e-01 -3.574280e-01 -3.757139e-01 -3.797127e-01 -3.700044e-01 -3.476480e-01 -3.368599e-01 -2.899074e-01 -2.347096e-01 -1.732161e-01 -1.073800e-01 -3.914526e-02 2.955188e-02 9.677443e-02 1.605761e-01 2.189989e-01 2.700832e-01 3.118966e-01 3.425876e-01 3.604700e-01 3.641377e-01 3.526085e-01 3.254834e-01 2.831021e-01 2.266633e-01 1.582787e-01 8.092886e-02 -1.692957e-03 -8.544360e-02 -1.660671e-01 -2.395552e-01 -3.024719e-01 -3.521901e-01 -3.870127e-01 -4.061742e-01 -4.097468e-01 -3.984861e-01 -3.736556e-01 -3.608534e-01 -3.099598e-01 -2.504537e-01 -1.844151e-01 -1.138964e-01 -4.091753e-02 3.252317e-02 1.044305e-01 1.727940e-01 2.355755e-01 2.907120e-01 3.361377e-01 3.698369e-01 3.899307e-01 3.948042e-01 3.832700e-01 3.547565e-01 3.094979e-01 2.486912e-01 1.745769e-01 9.040584e-02 2.705221e-04 -9.119640e-02 -1.792174e-01 -2.592976e-01 -3.276094e-01 -3.812705e-01 -4.184781e-01 -4.384983e-01 -4.415404e-01 -4.285626e-01 -4.010571e-01 -3.851269e-01 -3.302173e-01 -2.663480e-01 -1.957265e-01 -1.204993e-01 -4.275577e-02 3.545048e-02 1.120728e-01 1.850422e-01 2.522459e-01 3.115201e-01 3.606667e-01 3.975020e-01 4.199476e-01 4.261669e-01 4.147497e-01 3.849314e-01 3.368208e-01 2.715971e-01 1.916231e-01 1.004265e-01 2.518811e-03 -9.694728e-02 -1.926370e-01 -2.795355e-01 -3.534001e-01 -4.110831e-01 -4.506806e-01 -4.715052e-01 -4.739245e-01 -4.591206e-01 -4.288328e-01 -4.086866e-01 -3.498515e-01 -2.817431e-01 -2.066881e-01 -1.269181e-01 -4.458307e-02 3.821699e-02 1.193923e-01 1.968239e-01 2.683317e-01 3.316589e-01 3.844809e-01 4.244509e-01 4.492915e-01 4.569416e-01 4.457608e-01 4.147786e-01 3.639629e-01 2.944593e-01 2.087404e-01 1.106049e-01 4.985247e-03 -1.024364e-01 -2.057547e-01 -2.994222e-01 -3.787735e-01 -4.403962e-01 -4.822929e-01 -5.038368e-01 -5.055683e-01 -4.889061e-01 -4.558441e-01 -4.304853e-01 -3.679939e-01 -2.959595e-01 -2.168153e-01 -1.328659e-01 -4.631119e-02 4.071191e-02 1.260798e-01 2.076327e-01 2.831335e-01 3.502431e-01 4.065224e-01 4.494730e-01 4.766301e-01 4.857169e-01 4.748671e-01 4.429038e-01 3.896466e-01 3.161944e-01 2.251126e-01 1.204517e-01 7.546038e-03 -1.074101e-01 -2.179564e-01 -3.180267e-01 -4.025460e-01 -4.678493e-01 -5.118575e-01 -5.340131e-01 -5.350344e-01 -5.165766e-01 -4.808824e-01 -4.494812e-01 -3.837846e-01 -3.083262e-01 -2.256285e-01 -1.380556e-01 -4.784609e-02 4.283583e-02 1.318416e-01 2.169803e-01 2.959689e-01 3.663998e-01 4.257362e-01 4.713479e-01 5.006040e-01 5.110337e-01 5.005641e-01 4.678255e-01 4.124936e-01 3.356136e-01 2.398236e-01 1.293938e-01 1.001870e-02 -1.116435e-01 -2.286269e-01 -3.343920e-01 -4.234912e-01 -4.920329e-01 -5.378702e-01 -5.605167e-01 -5.608607e-01 -5.407774e-01 -5.027377e-01 -4.647091e-01 -3.964302e-01 -3.182251e-01 -2.326855e-01 -1.422203e-01 -4.909579e-02 4.450500e-02 1.364166e-01 2.244260e-01 3.062160e-01 3.793265e-01 4.411436e-01 4.889317e-01 5.199253e-01 5.314942e-01 5.213935e-01 4.880898e-01 4.311334e-01 3.515169e-01 2.519307e-01 1.368208e-01 1.217716e-02 -1.149579e-01 -2.371979e-01 -3.476093e-01 -4.404346e-01 -5.115956e-01 -5.588929e-01 -5.819047e-01 -5.816658e-01 -5.602380e-01 -5.202828e-01 -4.753567e-01 -4.052654e-01 -3.251387e-01 -2.376156e-01 -1.451345e-01 -4.997968e-02 4.565455e-02 1.395925e-01 2.296071e-01 3.133588e-01 3.883518e-01 4.519192e-01 5.012522e-01 5.334900e-01 5.458893e-01 5.360814e-01 5.024137e-01 4.443433e-01 3.628206e-01 2.605689e-01 1.421574e-01 1.378577e-02 -1.172282e-01 -2.431959e-01 -3.569005e-01 -4.523617e-01 -5.253678e-01 -5.736832e-01 -5.969355e-01 -5.962676e-01 -5.738774e-01 -5.325638e-01 -4.808353e-01 -4.098092e-01 -3.286935e-01 -2.401509e-01 -1.466347e-01 -5.043768e-02 4.624044e-02 1.412192e-01 2.322649e-01 3.170269e-01 3.929914e-01 4.574646e-01 5.075997e-01 5.404873e-01 5.533248e-01 5.436790e-01 5.098343e-01 4.511980e-01 3.686970e-01 2.650706e-01 1.449509e-01 1.464680e-02 -1.183801e-01 -2.462829e-01 -3.616965e-01 -4.585242e-01 -5.324843e-01 -5.813228e-01 -6.046941e-01 -6.037984e-01 -5.809058e-01 -5.388871e-01 -4.808353e-01 -4.098092e-01 -3.286935e-01 -2.401509e-01 -1.466347e-01 -5.043768e-02 4.624044e-02 1.412192e-01 2.322649e-01 3.170269e-01 3.929914e-01 4.574645e-01 5.075997e-01 5.404873e-01 5.533248e-01 5.436790e-01 5.098343e-01 4.511980e-01 3.686970e-01 2.650706e-01 1.449509e-01 1.464680e-02 -1.183801e-01 -2.462829e-01 -3.616965e-01 -4.585242e-01 -5.324843e-01 -5.813228e-01 -6.046941e-01 -6.037984e-01 -5.809058e-01 -5.388871e-01 -4.753567e-01 -4.052654e-01 -3.251387e-01 -2.376156e-01 -1.451345e-01 -4.997968e-02 4.565455e-02 1.395925e-01 2.296071e-01 3.133588e-01 3.883518e-01 4.519192e-01 5.012522e-01 5.334900e-01 5.458893e-01 5.360814e-01 5.024137e-01 4.443433e-01 3.628206e-01 2.605689e-01 1.421574e-01 1.378577e-02 -1.172282e-01 -2.431959e-01 -3.569005e-01 -4.523617e-01 -5.253678e-01 -5.736832e-01 -5.969355e-01 -5.962676e-01 -5.738774e-01 -5.325638e-01 -4.647091e-01 -3.964302e-01 -3.182251e-01 -2.326855e-01 -1.422203e-01 -4.909579e-02 4.450500e-02 1.364166e-01 2.244260e-01 3.062160e-01 3.793265e-01 4.411436e-01 4.889317e-01 5.199253e-01 5.314942e-01 5.213935e-01 4.880898e-01 4.311334e-01 3.515169e-01 2.519307e-01 1.368208e-01 1.217716e-02 -1.149579e-01 -2.371979e-01 -3.476093e-01 -4.404346e-01 -5.115956e-01 -5.588929e-01 -5.819047e-01 -5.816658e-01 -5.602380e-01 -5.202828e-01 -4.494812e-01 -3.837846e-01 -3.083262e-01 -2.256285e-01 -1.380556e-01 -4.784609e-02 4.283583e-02 1.318416e-01 2.169803e-01 2.959689e-01 3.663998e-01 4.257362e-01 4.713479e-01 5.006040e-01 5.110337e-01 5.005641e-01 4.678255e-01 4.124936e-01 3.356136e-01 2.398236e-01 1.293938e-01 1.001870e-02 -1.116435e-01 -2.286269e-01 -3.343920e-01 -4.234912e-01 -4.920329e-01 -5.378702e-01 -5.605167e-01 -5.608607e-01 -5.407774e-01 -5.027377e-01 -4.304853e-01 -3.679939e-01 -2.959595e-01 -2.168153e-01 -1.328659e-01 -4.631119e-02 4.071191e-02 1.260798e-01 2.076327e-01 2.831335e-01 3.502431e-01 4.065224e-01 4.494730e-01 4.766301e-01 4.857169e-01 4.748671e-01 4.429038e-01 3.896466e-01 3.161944e-01 2.251126e-01 1.204517e-01 7.546036e-03 -1.074101e-01 -2.179564e-01 -3.180267e-01 -4.025460e-01 -4.678493e-01 -5.118575e-01 -5.340131e-01 -5.350344e-01 -5.165766e-01 -4.808824e-01 -4.086867e-01 -3.498515e-01 -2.817431e-01 -2.066881e-01 -1.269181e-01 -4.458307e-02 3.821698e-02 1.193923e-01 1.968239e-01 2.683317e-01 3.316589e-01 3.844809e-01 4.244509e-01 4.492915e-01 4.569416e-01 4.457608e-01 4.147786e-01 3.639629e-01 2.944593e-01 2.087404e-01 1.106049e-01 4.985248e-03 -1.024364e-01 -2.057547e-01 -2.994222e-01 -3.787735e-01 -4.403962e-01 -4.822929e-01 -5.038368e-01 -5.055683e-01 -4.889061e-01 -4.558441e-01 -3.851269e-01 -3.302173e-01 -2.663480e-01 -1.957265e-01 -1.204993e-01 -4.275577e-02 3.545048e-02 1.120728e-01 1.850422e-01 2.522459e-01 3.115201e-01 3.606667e-01 3.975020e-01 4.199476e-01 4.261669e-01 4.147497e-01 3.849314e-01 3.368208e-01 2.715971e-01 1.916231e-01 1.004265e-01 2.518809e-03 -9.694728e-02 -1.926370e-01 -2.795355e-01 -3.534001e-01 -4.110831e-01 -4.506806e-01 -4.715052e-01 -4.739245e-01 -4.591206e-01 -4.288328e-01 -3.608534e-01 -3.099598e-01 -2.504537e-01 -1.844151e-01 -1.138964e-01 -4.091753e-02 3.252317e-02 1.044305e-01 1.727940e-01 2.355755e-01 2.907120e-01 3.361377e-01 3.698369e-01 3.899307e-01 3.948042e-01 3.832700e-01 3.547565e-01 3.094979e-01 2.486912e-01 1.745769e-01 9.040584e-02 2.705237e-04 -9.119640e-02 -1.792174e-01 -2.592976e-01 -3.276094e-01 -3.812705e-01 -4.184781e-01 -4.384983e-01 -4.415404e-01 -4.285626e-01 -4.010571e-01 -3.368599e-01 -2.899074e-01 -2.347096e-01 -1.732161e-01 -1.073800e-01 -3.914527e-02 2.955188e-02 9.677443e-02 1.605761e-01 2.189989e-01 2.700832e-01 3.118966e-01 3.425876e-01 3.604700e-01 3.641377e-01 3.526085e-01 3.254834e-01 2.831021e-01 2.266633e-01 1.582787e-01 8.092886e-02 -1.692958e-03 -8.544360e-02 -1.660671e-01 -2.395552e-01 -3.024719e-01 -3.521901e-01 -3.870127e-01 -4.061742e-01 -4.097468e-01 -3.984861e-01 -3.736556e-01 -3.140434e-01 -2.708120e-01 -2.197068e-01 -1.625495e-01 -1.011928e-01 -3.750159e-02 2.665378e-02 8.939850e-02 1.488538e-01 2.031430e-01 2.504088e-01 2.888470e-01 3.167614e-01 3.326433e-01 3.352756e-01 3.238578e-01 2.981387e-01 2.585412e-01 2.062530e-01 1.432569e-01 7.228007e-02 -3.350000e-03 -7.993341e-02 -1.536843e-01 -2.210335e-01 -2.789007e-01 -3.248961e-01 -3.574280e-01 -3.757139e-01 -3.797127e-01 -3.700044e-01 -3.476480e-01 -2.931782e-01 -2.533267e-01 -2.059602e-01 -1.527801e-01 -9.554250e-02 -3.603427e-02 2.394086e-02 8.257082e-02 1.380439e-01 1.885625e-01 2.323660e-01 2.677687e-01 2.932148e-01 3.073530e-01 3.091310e-01 2.979025e-01 2.735378e-01 2.365226e-01 1.880239e-01 1.299023e-01 6.465655e-02 -4.708104e-03 -7.487874e-02 -1.424781e-01 -2.043193e-01 -2.576342e-01 -3.002455e-01 -3.306619e-01 -3.480963e-01 -3.524181e-01 -3.440606e-01 -3.239075e-01 -2.749048e-01 -2.379949e-01 -1.938995e-01 -1.442120e-01 -9.060005e-02 -3.477743e-02 2.151521e-02 7.652558e-02 1.285051e-01 1.757288e-01 2.165233e-01 2.493073e-01 2.726465e-01 2.853239e-01 2.864245e-01 2.754278e-01 2.523003e-01 2.175725e-01 1.723853e-01 1.184896e-01 5.818733e-02 -5.789309e-03 -7.045204e-02 -1.327654e-01 -1.898626e-01 -2.392395e-01 -2.789012e-01 -3.074478e-01 -3.240964e-01 -3.286487e-01 -3.214201e-01 -3.031497e-01 -2.597306e-01 -2.252503e-01 -1.838687e-01 -1.370882e-01 -8.649993e-02 -3.375386e-02 1.946536e-02 7.145849e-02 1.205325e-01 1.650252e-01 2.033374e-01 2.339750e-01 2.556034e-01 2.671141e-01 2.677011e-01 2.569425e-01 2.348769e-01 2.020650e-01 1.596213e-01 1.092034e-01 5.295244e-02 -6.619436e-03 -6.678368e-02 -1.247776e-01 -1.779904e-01 -2.241302e-01 -2.613518e-01 -2.883332e-01 -3.043005e-01 -3.090068e-01 -3.026773e-01 -2.859368e-01 -2.480391e-01 -2.154224e-01 -1.761302e-01 -1.315936e-01 -8.334326e-02 -3.297767e-02 1.786375e-02 6.752486e-02 1.143573e-01 1.567490e-01 1.931586e-01 2.221597e-01 2.424937e-01 2.531338e-01 2.533551e-01 2.428072e-01 2.215803e-01 1.902540e-01 1.499194e-01 1.021615e-01 4.899883e-02 -7.221665e-03 -6.396564e-02 -1.186738e-01 -1.689268e-01 -2.125924e-01 -2.479390e-01 -2.737064e-01 -2.891310e-01 -2.939327e-01 -2.882721e-01 -2.726896e-01 -2.401019e-01 -2.087461e-01 -1.708717e-01 -1.278605e-01 -8.120137e-02 -3.245693e-02 1.676536e-02 6.483960e-02 1.101488e-01 1.511156e-01 1.862387e-01 2.141373e-01 2.336043e-01 2.436672e-01 2.436548e-01 2.332634e-01 2.126156e-01 1.823023e-01 1.433969e-01 9.743493e-02 4.635249e-02 -7.613668e-03 -6.205805e-02 -1.145563e-01 -1.628160e-01 -2.048114e-01 -2.388875e-01 -2.638266e-01 -2.788739e-01 -2.837290e-01 -2.785105e-01 -2.637038e-01 -2.360915e-01 -2.053715e-01 -1.682132e-01 -1.259733e-01 -8.011951e-02 -3.219572e-02 1.620696e-02 6.347828e-02 1.080174e-01 1.482648e-01 1.827393e-01 2.100835e-01 2.291160e-01 2.388916e-01 2.387655e-01 2.284571e-01 2.081049e-01 1.783047e-01 1.401207e-01 9.506302e-02 4.502661e-02 -7.806896e-03 -6.109622e-02 -1.124842e-01 -1.597416e-01 -2.008960e-01 -2.343309e-01 -2.588502e-01 -2.737041e-01 -2.785825e-01 -2.735838e-01 -2.591659e-01 -2.401019e-01 -2.087461e-01 -1.708717e-01 -1.278605e-01 -8.120137e-02 -3.245692e-02 1.676535e-02 6.483960e-02 1.101488e-01 1.511156e-01 1.862387e-01 2.141373e-01 2.336043e-01 2.436672e-01 2.436548e-01 2.332634e-01 2.126156e-01 1.823023e-01 1.433969e-01 9.743493e-02 4.635249e-02 -7.613667e-03 -6.205806e-02 -1.145563e-01 -1.628160e-01 -2.048114e-01 -2.388875e-01 -2.638266e-01 -2.788739e-01 -2.837289e-01 -2.785105e-01 -2.637038e-01 -2.443170e-01 -2.122854e-01 -1.736546e-01 -1.298325e-01 -8.232977e-02 -3.272764e-02 1.735020e-02 6.626249e-02 1.123764e-01 1.540967e-01 1.899015e-01 2.183858e-01 2.383155e-01 2.486888e-01 2.488055e-01 2.383362e-01 2.173853e-01 1.865367e-01 1.468721e-01 9.995298e-02 4.775912e-02 -7.413535e-03 -6.308986e-02 -1.167723e-01 -1.660993e-01 -2.089872e-01 -2.437396e-01 -2.691159e-01 -2.843574e-01 -2.891755e-01 -2.837123e-01 -2.684840e-01 -2.526655e-01 -2.192922e-01 -1.791625e-01 -1.337355e-01 -8.456483e-02 -3.326761e-02 1.850107e-02 6.907039e-02 1.167767e-01 1.599901e-01 1.971481e-01 2.267984e-01 2.476524e-01 2.586501e-01 2.590328e-01 2.484189e-01 2.268748e-01 1.949692e-01 1.537995e-01 1.049777e-01 5.057089e-02 -7.006409e-03 -6.513902e-02 -1.211819e-01 -1.726347e-01 -2.172975e-01 -2.533910e-01 -2.796303e-01 -2.952498e-01 -2.999858e-01 -2.940290e-01 -2.779577e-01 -2.649779e-01 -2.296178e-01 -1.872756e-01 -1.394850e-01 -8.786141e-02 -3.407316e-02 2.018036e-02 7.318653e-02 1.232380e-01 1.686551e-01 2.078165e-01 2.392000e-01 2.614366e-01 2.733788e-01 2.741788e-01 2.633750e-01 2.409738e-01 2.075182e-01 1.641251e-01 1.124810e-01 5.478233e-02 -6.377927e-03 -6.817288e-02 -1.277343e-01 -1.823513e-01 -2.296491e-01 -2.677250e-01 -2.952297e-01 -3.113902e-01 -3.159842e-01 -3.092774e-01 -2.919436e-01 -2.809846e-01 -2.430274e-01 -1.978055e-01 -1.469479e-01 -9.214781e-02 -3.513671e-02 2.233165e-02 7.849368e-02 1.315881e-01 1.798733e-01 2.216527e-01 2.553139e-01 2.793828e-01 2.925950e-01 2.939831e-01 2.829750e-01 2.594925e-01 2.240380e-01 1.777495e-01 1.224074e-01 6.037885e-02 -5.505363e-03 -7.213371e-02 -1.363369e-01 -1.951209e-01 -2.458765e-01 -2.865382e-01 -3.156748e-01 -3.325098e-01 -3.368812e-01 -3.291605e-01 -3.101511e-01 -3.003009e-01 -2.591885e-01 -2.104865e-01 -1.559367e-01 -9.732157e-02 -3.644457e-02 2.488023e-02 8.483253e-02 1.415906e-01 1.933413e-01 2.383003e-01 2.747473e-01 3.010798e-01 3.158890e-01 3.180566e-01 3.068679e-01 2.821323e-01 2.442928e-01 1.945044e-01 1.346575e-01 6.732775e-02 -4.357774e-03 -7.692976e-02 -1.468390e-01 -2.107343e-01 -2.657130e-01 -3.095092e-01 -3.405963e-01 -3.582015e-01 -3.622471e-01 -3.532437e-01 -3.321610e-01 -3.224110e-01 -2.776588e-01 -2.249671e-01 -1.662026e-01 -1.032452e-01 -3.797402e-02 2.773436e-02 9.200121e-02 1.529414e-01 2.086650e-01 2.572908e-01 2.969762e-01 3.259708e-01 3.426957e-01 3.458510e-01 3.345474e-01 3.084508e-01 2.679216e-01 2.141225e-01 1.490645e-01 7.556462e-02 -2.898598e-03 -8.242665e-02 -1.590122e-01 -2.288736e-01 -2.887573e-01 -3.361625e-01 -3.694573e-01 -3.878851e-01 -3.914809e-01 -3.809298e-01 -3.574046e-01 -3.466552e-01 -2.978775e-01 -2.408032e-01 -1.774317e-01 -1.097426e-01 -3.969047e-02 3.078763e-02 9.975655e-02 1.652688e-01 2.253564e-01 2.780361e-01 3.213336e-01 3.533351e-01 3.722699e-01 3.766290e-01 3.653165e-01 3.378229e-01 2.943995e-01 2.362021e-01 1.653654e-01 8.497434e-02 -1.092564e-03 -8.844138e-02 -1.725327e-01 -2.490846e-01 -3.144393e-01 -3.658307e-01 -4.015170e-01 -4.207746e-01 -4.237817e-01 -4.114351e-01 -3.851466e-01 -3.722253e-01 -3.191634e-01 -2.574582e-01 -1.892438e-01 -1.165977e-01 -4.154476e-02 3.392260e-02 1.078185e-01 1.781375e-01 2.428362e-01 2.998291e-01 3.470058e-01 3.822791e-01 4.036708e-01 4.094402e-01 3.982570e-01 3.694058e-01 3.230002e-01 2.601695e-01 1.831689e-01 9.536722e-02 1.081656e-03 -9.474259e-02 -1.869694e-01 -2.707556e-01 -3.419925e-01 -3.976253e-01 -4.358022e-01 -4.558525e-01 -4.581294e-01 -4.437765e-01 -4.144761e-01 -3.981730e-01 -3.407230e-01 -2.743097e-01 -2.011979e-01 -1.235560e-01 -4.347180e-02 3.701576e-02 1.158779e-01 1.910587e-01 2.604453e-01 3.218542e-01 3.730403e-01 4.117403e-01 4.357600e-01 4.431130e-01 4.322136e-01 4.021147e-01 3.527660e-01 2.852477e-01 2.019239e-01 1.064527e-01 3.613087e-03 -1.010593e-01 -2.017834e-01 -2.931086e-01 -3.704413e-01 -4.304223e-01 -4.710952e-01 -4.918625e-01 -4.932818e-01 -4.767728e-01 -4.443129e-01 -4.234347e-01 -3.616731e-01 -2.906677e-01 -2.128043e-01 -1.303320e-01 -4.539093e-02 3.994320e-02 1.236083e-01 2.035068e-01 2.774657e-01 3.432115e-01 3.983715e-01 4.405116e-01 4.672233e-01 4.762703e-01 4.658021e-01 4.346239e-01 3.825002e-01 3.104405e-01 2.208998e-01 1.178172e-01 6.436984e-03 -1.070992e-01 -2.163426e-01 -3.152116e-01 -3.986111e-01 -4.628742e-01 -5.059485e-01 -5.273285e-01 -5.277975e-01 -5.090707e-01 -4.734333e-01 -4.468764e-01 -3.810788e-01 -3.058045e-01 -2.235463e-01 -1.366208e-01 -4.720899e-02 4.258679e-02 1.306807e-01 2.149435e-01 2.931522e-01 3.629553e-01 4.218652e-01 4.672903e-01 4.966199e-01 5.073780e-01 4.974536e-01 4.654022e-01 4.107927e-01 3.345467e-01 2.391881e-01 1.289147e-01 9.416364e-03 -1.125748e-01 -2.299534e-01 -3.360148e-01 -4.251706e-01 -4.934562e-01 -5.387356e-01 -5.606076e-01 -5.600903e-01 -5.391982e-01 -5.005206e-01 -4.673580e-01 -3.980061e-01 -3.189961e-01 -2.329094e-01 -1.421159e-01 -4.882615e-02 4.483991e-02 1.367813e-01 2.248466e-01 3.067738e-01 3.801474e-01 4.423829e-01 4.907518e-01 5.224652e-01 5.348314e-01 5.255010e-01 4.927948e-01 4.360917e-01 3.562167e-01 2.557403e-01 1.390833e-01 1.233571e-02 -1.172316e-01 -2.419086e-01 -3.544155e-01 -4.487088e-01 -5.205527e-01 -5.677420e-01 -5.899824e-01 -5.885187e-01 -5.656476e-01 -5.242397e-01 -4.838138e-01 -4.115870e-01 -3.295715e-01 -2.404166e-01 -1.465307e-01 -5.014443e-02 4.661236e-02 1.416302e-01 2.327431e-01 3.176612e-01 3.939208e-01 4.588613e-01 5.096455e-01 5.433403e-01 5.570773e-01 5.483078e-01 5.151535e-01 4.568264e-01 3.740595e-01 2.694504e-01 1.475963e-01 1.491612e-02 -1.208700e-01 -2.515454e-01 -3.693462e-01 -4.678462e-01 -5.425825e-01 -5.912965e-01 -6.137905e-01 -6.115074e-01 -5.869855e-01 -5.433326e-01 -4.953396e-01 -4.210888e-01 -3.369661e-01 -2.456662e-01 -1.496226e-01 -5.107764e-02 4.783393e-02 1.449986e-01 2.382421e-01 3.252568e-01 4.035467e-01 4.703993e-01 5.229021e-01 5.580205e-01 5.727601e-01 5.644296e-01 5.310048e-01 4.715734e-01 3.867959e-01 2.792821e-01 1.537516e-01 1.685737e-02 -1.233561e-01 -2.583060e-01 -3.798786e-01 -4.813700e-01 -5.581525e-01 -6.079301e-01 -6.305790e-01 -6.276896e-01 -6.019782e-01 -5.567249e-01 -5.012764e-01 -4.259798e-01 -3.407709e-01 -2.483675e-01 -1.512151e-01 -5.156146e-02 4.845681e-02 1.467248e-01 2.410644e-01 3.291596e-01 4.084981e-01 4.763413e-01 5.297379e-01 5.656010e-01 5.808712e-01 5.727818e-01 5.392321e-01 4.792431e-01 3.934351e-01 2.844223e-01 1.569866e-01 1.790262e-02 -1.246148e-01 -2.617904e-01 -3.853269e-01 -4.883746e-01 -5.662183e-01 -6.165427e-01 -6.392639e-01 -6.360515e-01 -6.097163e-01 -5.636294e-01 -5.012764e-01 -4.259797e-01 -3.407709e-01 -2.483675e-01 -1.512151e-01 -5.156146e-02 4.845681e-02 1.467248e-01 2.410644e-01 3.291596e-01 4.084981e-01 4.763413e-01 5.297379e-01 5.656010e-01 5.808712e-01 5.727818e-01 5.392321e-01 4.792431e-01 3.934351e-01 2.844223e-01 1.569866e-01 1.790262e-02 -1.246148e-01 -2.617904e-01 -3.853269e-01 -4.883746e-01 -5.662183e-01 -6.165427e-01 -6.392639e-01 -6.360515e-01 -6.097163e-01 -5.636294e-01 -4.953396e-01 -4.210888e-01 -3.369661e-01 -2.456662e-01 -1.496226e-01 -5.107764e-02 4.783393e-02 1.449986e-01 2.382421e-01 3.252568e-01 4.035467e-01 4.703993e-01 5.229021e-01 5.580205e-01 5.727601e-01 5.644296e-01 5.310048e-01 4.715734e-01 3.867959e-01 2.792821e-01 1.537516e-01 1.685737e-02 -1.233561e-01 -2.583060e-01 -3.798786e-01 -4.813700e-01 -5.581525e-01 -6.079301e-01 -6.305790e-01 -6.276896e-01 -6.019782e-01 -5.567249e-01 -4.838138e-01 -4.115870e-01 -3.295715e-01 -2.404166e-01 -1.465307e-01 -5.014443e-02 4.661235e-02 1.416302e-01 2.327431e-01 3.176612e-01 3.939207e-01 4.588613e-01 5.096455e-01 5.433403e-01 5.570773e-01 5.483078e-01 5.151535e-01 4.568264e-01 3.740595e-01 2.694504e-01 1.475963e-01 1.491613e-02 -1.208700e-01 -2.515454e-01 -3.693462e-01 -4.678462e-01 -5.425825e-01 -5.912965e-01 -6.137905e-01 -6.115074e-01 -5.869855e-01 -5.433326e-01 -4.673580e-01 -3.980061e-01 -3.189961e-01 -2.329094e-01 -1.421159e-01 -4.882615e-02 4.483991e-02 1.367813e-01 2.248466e-01 3.067738e-01 3.801474e-01 4.423829e-01 4.907518e-01 5.224652e-01 5.348314e-01 5.255010e-01 4.927948e-01 4.360917e-01 3.562167e-01 2.557403e-01 1.390833e-01 1.233571e-02 -1.172315e-01 -2.419086e-01 -3.544155e-01 -4.487088e-01 -5.205527e-01 -5.677420e-01 -5.899824e-01 -5.885187e-01 -5.656476e-01 -5.242397e-01 -4.468764e-01 -3.810787e-01 -3.058045e-01 -2.235463e-01 -1.366208e-01 -4.720898e-02 4.258679e-02 1.306807e-01 2.149435e-01 2.931522e-01 3.629553e-01 4.218653e-01 4.672903e-01 4.966199e-01 5.073780e-01 4.974536e-01 4.654022e-01 4.107927e-01 3.345467e-01 2.391881e-01 1.289147e-01 9.416366e-03 -1.125748e-01 -2.299534e-01 -3.360148e-01 -4.251706e-01 -4.934562e-01 -5.387356e-01 -5.606076e-01 -5.600903e-01 -5.391982e-01 -5.005206e-01 -4.234347e-01 -3.616731e-01 -2.906677e-01 -2.128043e-01 -1.303320e-01 -4.539093e-02 3.994320e-02 1.236083e-01 2.035069e-01 2.774657e-01 3.432115e-01 3.983715e-01 4.405116e-01 4.672232e-01 4.762703e-01 4.658021e-01 4.346239e-01 3.825002e-01 3.104405e-01 2.208998e-01 1.178172e-01 6.436983e-03 -1.070992e-01 -2.163426e-01 -3.152116e-01 -3.986111e-01 -4.628742e-01 -5.059485e-01 -5.273285e-01 -5.277975e-01 -5.090707e-01 -4.734333e-01 -3.981730e-01 -3.407230e-01 -2.743097e-01 -2.011979e-01 -1.235560e-01 -4.347179e-02 3.701576e-02 1.158779e-01 1.910587e-01 2.604453e-01 3.218542e-01 3.730403e-01 4.117403e-01 4.357600e-01 4.431130e-01 4.322136e-01 4.021147e-01 3.527660e-01 2.852477e-01 2.019239e-01 1.064527e-01 3.613089e-03 -1.010593e-01 -2.017834e-01 -2.931086e-01 -3.704413e-01 -4.304223e-01 -4.710952e-01 -4.918625e-01 -4.932818e-01 -4.767728e-01 -4.443129e-01 -3.722253e-01 -3.191634e-01 -2.574582e-01 -1.892438e-01 -1.165977e-01 -4.154476e-02 3.392260e-02 1.078185e-01 1.781375e-01 2.428362e-01 2.998291e-01 3.470058e-01 3.822791e-01 4.036708e-01 4.094402e-01 3.982570e-01 3.694058e-01 3.230002e-01 2.601695e-01 1.831689e-01 9.536722e-02 1.081654e-03 -9.474259e-02 -1.869694e-01 -2.707556e-01 -3.419925e-01 -3.976253e-01 -4.358022e-01 -4.558525e-01 -4.581294e-01 -4.437765e-01 -4.144761e-01 -3.466552e-01 -2.978775e-01 -2.408032e-01 -1.774317e-01 -1.097426e-01 -3.969047e-02 3.078762e-02 9.975655e-02 1.652688e-01 2.253564e-01 2.780361e-01 3.213336e-01 3.533351e-01 3.722699e-01 3.766290e-01 3.653165e-01 3.378229e-01 2.943995e-01 2.362020e-01 1.653654e-01 8.497434e-02 -1.092562e-03 -8.844139e-02 -1.725327e-01 -2.490846e-01 -3.144393e-01 -3.658307e-01 -4.015170e-01 -4.207746e-01 -4.237817e-01 -4.114351e-01 -3.851466e-01 -3.224110e-01 -2.776588e-01 -2.249671e-01 -1.662026e-01 -1.032452e-01 -3.797403e-02 2.773436e-02 9.200121e-02 1.529414e-01 2.086650e-01 2.572908e-01 2.969762e-01 3.259708e-01 3.426957e-01 3.458510e-01 3.345474e-01 3.084508e-01 2.679216e-01 2.141225e-01 1.490645e-01 7.556462e-02 -2.898599e-03 -8.242664e-02 -1.590122e-01 -2.288736e-01 -2.887573e-01 -3.361625e-01 -3.694573e-01 -3.878851e-01 -3.914809e-01 -3.809298e-01 -3.574046e-01 -3.003009e-01 -2.591885e-01 -2.104865e-01 -1.559367e-01 -9.732157e-02 -3.644456e-02 2.488023e-02 8.483254e-02 1.415906e-01 1.933413e-01 2.383003e-01 2.747473e-01 3.010798e-01 3.158890e-01 3.180566e-01 3.068679e-01 2.821323e-01 2.442928e-01 1.945044e-01 1.346575e-01 6.732775e-02 -4.357772e-03 -7.692976e-02 -1.468390e-01 -2.107343e-01 -2.657130e-01 -3.095092e-01 -3.405963e-01 -3.582015e-01 -3.622471e-01 -3.532437e-01 -3.321610e-01 -2.809846e-01 -2.430274e-01 -1.978055e-01 -1.469479e-01 -9.214780e-02 -3.513671e-02 2.233165e-02 7.849367e-02 1.315881e-01 1.798733e-01 2.216527e-01 2.553139e-01 2.793828e-01 2.925950e-01 2.939831e-01 2.829750e-01 2.594925e-01 2.240380e-01 1.777495e-01 1.224074e-01 6.037885e-02 -5.505365e-03 -7.213371e-02 -1.363369e-01 -1.951209e-01 -2.458765e-01 -2.865382e-01 -3.156749e-01 -3.325098e-01 -3.368812e-01 -3.291605e-01 -3.101511e-01 -2.649779e-01 -2.296178e-01 -1.872756e-01 -1.394850e-01 -8.786142e-02 -3.407316e-02 2.018036e-02 7.318654e-02 1.232380e-01 1.686552e-01 2.078165e-01 2.392000e-01 2.614366e-01 2.733788e-01 2.741788e-01 2.633750e-01 2.409738e-01 2.075182e-01 1.641251e-01 1.124810e-01 5.478233e-02 -6.377925e-03 -6.817289e-02 -1.277343e-01 -1.823513e-01 -2.296491e-01 -2.677250e-01 -2.952297e-01 -3.113902e-01 -3.159842e-01 -3.092774e-01 -2.919436e-01 -2.526655e-01 -2.192922e-01 -1.791625e-01 -1.337355e-01 -8.456483e-02 -3.326761e-02 1.850108e-02 6.907039e-02 1.167767e-01 1.599901e-01 1.971481e-01 2.267984e-01 2.476524e-01 2.586501e-01 2.590328e-01 2.484189e-01 2.268748e-01 1.949692e-01 1.537995e-01 1.049777e-01 5.057089e-02 -7.006411e-03 -6.513902e-02 -1.211819e-01 -1.726347e-01 -2.172975e-01 -2.533910e-01 -2.796303e-01 -2.952498e-01 -2.999858e-01 -2.940290e-01 -2.779577e-01 -2.443170e-01 -2.122854e-01 -1.736546e-01 -1.298324e-01 -8.232977e-02 -3.272763e-02 1.735019e-02 6.626250e-02 1.123764e-01 1.540967e-01 1.899015e-01 2.183859e-01 2.383155e-01 2.486888e-01 2.488055e-01 2.383362e-01 2.173853e-01 1.865367e-01 1.468721e-01 9.995298e-02 4.775912e-02 -7.413533e-03 -6.308986e-02 -1.167723e-01 -1.660993e-01 -2.089872e-01 -2.437396e-01 -2.691159e-01 -2.843574e-01 -2.891755e-01 -2.837123e-01 -2.684840e-01 -2.401019e-01 -2.087461e-01 -1.708717e-01 -1.278605e-01 -8.120137e-02 -3.245693e-02 1.676536e-02 6.483960e-02 1.101488e-01 1.511156e-01 1.862387e-01 2.141373e-01 2.336043e-01 2.436672e-01 2.436548e-01 2.332634e-01 2.126156e-01 1.823023e-01 1.433969e-01 9.743493e-02 4.635249e-02 -7.613668e-03 -6.205805e-02 -1.145563e-01 -1.628160e-01 -2.048114e-01 -2.388875e-01 -2.638266e-01 -2.788739e-01 -2.837290e-01 -2.785105e-01 -2.637038e-01 -2.480391e-01 -2.154224e-01 -1.761302e-01 -1.315936e-01 -8.334326e-02 -3.297767e-02 1.786376e-02 6.752485e-02 1.143573e-01 1.567490e-01 1.931587e-01 2.221597e-01 2.424937e-01 2.531338e-01 2.533551e-01 2.428072e-01 2.215803e-01 1.902540e-01 1.499194e-01 1.021615e-01 4.899883e-02 -7.221667e-03 -6.396564e-02 -1.186738e-01 -1.689268e-01 -2.125924e-01 -2.479390e-01 -2.737064e-01 -2.891310e-01 -2.939327e-01 -2.882721e-01 -2.726896e-01 -2.526655e-01 -2.192922e-01 -1.791625e-01 -1.337355e-01 -8.456483e-02 -3.326761e-02 1.850107e-02 6.907039e-02 1.167767e-01 1.599901e-01 1.971481e-01 2.267984e-01 2.476524e-01 2.586501e-01 2.590328e-01 2.484189e-01 2.268748e-01 1.949692e-01 1.537995e-01 1.049777e-01 5.057089e-02 -7.006409e-03 -6.513902e-02 -1.211819e-01 -1.726347e-01 -2.172975e-01 -2.533910e-01 -2.796303e-01 -2.952498e-01 -2.999858e-01 -2.940290e-01 -2.779577e-01 -2.618411e-01 -2.269626e-01 -1.851702e-01 -1.379788e-01 -8.698661e-02 -3.384655e-02 1.975615e-02 7.212263e-02 1.215597e-01 1.664033e-01 2.050488e-01 2.359933e-01 2.578884e-01 2.696077e-01 2.703238e-01 2.595917e-01 2.374286e-01 2.043793e-01 1.615521e-01 1.106119e-01 5.372243e-02 -6.565906e-03 -6.747480e-02 -1.261859e-01 -1.800348e-01 -2.266852e-01 -2.642627e-01 -2.914338e-01 -3.074301e-01 -3.120236e-01 -3.054666e-01 -2.884144e-01 -2.754035e-01 -2.382881e-01 -1.940349e-01 -1.442394e-01 -9.056382e-02 -3.471171e-02 2.158966e-02 7.660250e-02 1.285922e-01 1.758457e-01 2.166981e-01 2.495717e-01 2.730297e-01 2.858456e-01 2.870874e-01 2.762120e-01 2.531591e-01 2.184328e-01 1.731533e-01 1.190618e-01 5.846599e-02 -5.878741e-03 -7.094591e-02 -1.336526e-01 -1.910842e-01 -2.406976e-01 -2.804750e-01 -3.090129e-01 -3.255432e-01 -3.298956e-01 -3.224204e-01 -3.038908e-01 -2.930891e-01 -2.530357e-01 -2.055674e-01 -1.523829e-01 -9.522428e-02 -3.585665e-02 2.394228e-02 8.238822e-02 1.376965e-01 1.880936e-01 2.318382e-01 2.672566e-01 2.927955e-01 3.070952e-01 3.090825e-01 2.980782e-01 2.739117e-01 2.370246e-01 1.885447e-01 1.303088e-01 6.481376e-02 -4.909934e-03 -7.549946e-02 -1.435116e-01 -2.056911e-01 -2.592144e-01 -3.018732e-01 -3.321750e-01 -3.49