<VTKFile type="RectilinearGrid">
<RectilinearGrid WholeExtent="0 32 0 32 0 32" GhostLevel="0">
<Piece Extent="0 32 0 32 0 32">
<CellData Scalars="p phase" Vectors="vel">
<DataArray type="Float32" Name="p">
-2.660806e-01 -2.424028e-01 -2.103065e-01 -1.710639e-01 -1.261321e-01 -7.710547e-02 -2.567428e-02 2.641386e-02 7.738981e-02 1.254991e-01 1.690403e-01 2.064086e-01 2.361450e-01 2.569928e-01 2.679589e-01 2.683780e-01 2.579741e-01 2.369110e-01 2.058258e-01 1.658349e-01 1.185072e-01 6.580131e-02 9.968389e-03 -4.657180e-02 -1.013704e-01 -1.520902e-01 -1.966334e-01 -2.332444e-01 -2.605816e-01 -2.777542e-01 -2.843277e-01 -2.803038e-01 -2.709116e-01 -2.467000e-01 -2.139482e-01 -1.739570e-01 -1.282093e-01 -7.832291e-02 -2.600837e-02 2.696776e-02 7.881800e-02 1.277688e-01 1.720981e-01 2.101775e-01 2.405223e-01 2.618471e-01 2.731297e-01 2.736769e-01 2.631887e-01 2.418139e-01 2.101859e-01 1.694320e-01 1.211491e-01 6.733969e-02 1.031250e-02 -4.744621e-02 -1.034185e-01 -1.552022e-01 -2.006448e-01 -2.379508e-01 -2.657553e-01 -2.831610e-01 -2.897414e-01 -2.855168e-01 -2.804788e-01 -2.552057e-01 -2.211534e-01 -1.796794e-01 -1.323178e-01 -8.073144e-02 -2.667109e-02 2.806000e-02 8.163868e-02 1.322543e-01 1.781442e-01 2.176342e-01 2.491878e-01 2.714634e-01 2.833801e-01 2.841883e-01 2.735405e-01 2.515535e-01 2.188523e-01 1.765858e-01 1.264055e-01 7.040154e-02 1.099797e-02 -4.918564e-02 -1.074928e-01 -1.613911e-01 -2.086189e-01 -2.473012e-01 -2.760277e-01 -2.938891e-01 -3.004757e-01 -2.958466e-01 -2.945849e-01 -2.677362e-01 -2.317609e-01 -1.881002e-01 -1.383628e-01 -8.427686e-02 -2.765095e-02 2.965915e-02 8.577925e-02 1.388455e-01 1.870364e-01 2.286111e-01 2.619571e-01 2.856491e-01 2.985185e-01 2.997306e-01 2.888647e-01 2.659874e-01 2.317089e-01 1.872078e-01 1.342159e-01 7.495404e-02 1.201908e-02 -5.176876e-02 -1.135442e-01 -1.705794e-01 -2.204490e-01 -2.611605e-01 -2.912379e-01 -3.097566e-01 -3.163349e-01 -3.110920e-01 -3.129170e-01 -2.840021e-01 -2.455183e-01 -1.990149e-01 -1.461965e-01 -8.887433e-02 -2.892920e-02 3.171751e-02 9.112807e-02 1.473721e-01 1.985536e-01 2.428464e-01 2.785397e-01 3.040987e-01 3.182381e-01 3.200089e-01 3.088902e-01 2.848786e-01 2.485594e-01 2.011469e-01 1.444764e-01 8.094059e-02 1.336658e-02 -5.515732e-02 -1.214867e-01 -1.826325e-01 -2.359531e-01 -2.793018e-01 -3.111194e-01 -3.304662e-01 -3.370024e-01 -3.309308e-01 -3.350288e-01 -3.035942e-01 -2.620706e-01 -2.121374e-01 -1.556127e-01 -9.440494e-02 -3.047830e-02 3.417081e-02 9.753213e-02 1.575986e-01 2.123880e-01 2.599728e-01 2.985246e-01 3.263748e-01 3.420945e-01 3.445907e-01 3.332145e-01 3.078694e-01 2.691035e-01 2.181686e-01 1.570235e-01 8.827202e-02 1.502670e-02 -5.928934e-02 -1.311826e-01 -1.973390e-01 -2.548488e-01 -3.013784e-01 -3.352718e-01 -3.555780e-01 -3.620164e-01 -3.548990e-01 -3.603227e-01 -3.259697e-01 -2.809503e-01 -2.270924e-01 -1.663413e-01 -1.007123e-01 -3.226018e-02 3.693835e-02 1.047953e-01 1.692211e-01 2.281386e-01 2.795076e-01 3.213657e-01 3.518902e-01 3.694829e-01 3.728790e-01 3.612731e-01 3.344506e-01 2.929071e-01 2.379292e-01 1.716156e-01 9.681543e-02 1.697927e-02 -6.407131e-02 -1.424267e-01 -2.143862e-01 -2.767248e-01 -3.268933e-01 -3.631299e-01 -3.844803e-01 -3.907437e-01 -3.823682e-01 -3.880359e-01 -3.504418e-01 -3.015703e-01 -2.434110e-01 -1.780454e-01 -1.076005e-01 -3.422459e-02 3.992401e-02 1.126786e-01 1.818650e-01 2.453073e-01 3.008452e-01 3.463711e-01 3.798913e-01 3.996173e-01 4.040867e-01 3.923102e-01 3.639305e-01 3.193714e-01 2.599487e-01 1.879106e-01 1.063812e-01 1.919473e-02 -6.937092e-02 -1.549288e-01 -2.333362e-01 -3.010117e-01 -3.551676e-01 -3.939327e-01 -4.163619e-01 -4.223565e-01 -4.125273e-01 -4.172360e-01 -3.761788e-01 -3.232245e-01 -2.605320e-01 -1.903219e-01 -1.148341e-01 -3.630815e-02 4.301832e-02 1.209028e-01 1.950885e-01 2.633010e-01 3.232578e-01 3.726997e-01 4.094515e-01 4.315180e-01 4.372189e-01 4.253574e-01 3.954091e-01 3.477067e-01 2.835851e-01 2.054463e-01 1.167096e-01 2.162954e-02 -7.501237e-02 -1.683010e-01 -2.536067e-01 -3.269592e-01 -3.853174e-01 -4.267029e-01 -4.501948e-01 -4.558192e-01 -4.443741e-01 -4.468320e-01 -4.022158e-01 -3.450992e-01 -2.778109e-01 -2.027091e-01 -1.221417e-01 -3.843445e-02 4.610192e-02 1.291551e-01 2.083914e-01 2.814425e-01 3.459062e-01 3.993717e-01 4.394781e-01 4.640156e-01 4.710724e-01 4.592266e-01 4.277673e-01 3.769180e-01 3.080198e-01 2.236257e-01 1.274602e-01 2.422030e-02 -8.077682e-02 -1.820536e-01 -2.744632e-01 -3.536276e-01 -4.162470e-01 -4.602426e-01 -4.847347e-01 -4.898938e-01 -4.767242e-01 -4.756053e-01 -4.274834e-01 -3.662977e-01 -2.945409e-01 -2.147006e-01 -1.292244e-01 -4.051576e-02 4.905031e-02 1.371003e-01 2.212321e-01 2.989917e-01 3.678648e-01 4.252951e-01 4.687405e-01 4.957769e-01 5.042580e-01 4.925287e-01 4.596801e-01 4.058123e-01 3.322592e-01 2.417150e-01 1.382063e-01 2.687715e-02 -8.641014e-02 -1.956036e-01 -2.950307e-01 -3.799030e-01 -4.466676e-01 -4.931579e-01 -5.185492e-01 -5.231704e-01 -5.082421e-01 -5.022642e-01 -4.508553e-01 -3.858808e-01 -3.099835e-01 -2.257676e-01 -1.357687e-01 -4.245667e-02 5.173960e-02 1.443955e-01 2.330512e-01 3.151779e-01 3.881613e-01 4.493126e-01 4.959207e-01 5.253588e-01 5.352546e-01 5.237252e-01 4.896625e-01 4.330370e-01 3.551636e-01 2.588618e-01 1.484427e-01 2.947902e-02 -9.163904e-02 -2.083024e-01 -3.143305e-01 -4.045432e-01 -4.751519e-01 -5.239168e-01 -5.500787e-01 -5.541285e-01 -5.375010e-01 -5.255189e-01 -4.712137e-01 -4.029200e-01 -3.234108e-01 -2.353894e-01 -1.414645e-01 -4.415975e-02 5.405302e-02 1.507091e-01 2.433024e-01 3.292430e-01 4.058322e-01 4.702672e-01 5.196890e-01 5.512909e-01 5.624971e-01 5.512159e-01 5.161538e-01 4.571555e-01 3.755094e-01 2.741395e-01 1.576083e-01 3.187403e-02 -9.619412e-02 -2.194809e-01 -3.313459e-01 -4.262583e-01 -5.002238e-01 -5.509459e-01 -5.777329e-01 -5.812294e-01 -5.630667e-01 -5.441736e-01 -4.875262e-01 -4.165608e-01 -3.341542e-01 -2.430874e-01 -1.460255e-01 -4.553277e-02 5.588746e-02 1.557412e-01 2.514879e-01 3.404913e-01 4.199872e-01 4.870821e-01 5.387985e-01 5.721832e-01 5.844928e-01 5.734615e-01 5.376391e-01 4.767608e-01 3.920865e-01 2.866210e-01 1.651300e-01 3.388942e-02 -9.983492e-02 -2.285076e-01 -3.451081e-01 -4.438184e-01 -5.204800e-01 -5.727551e-01 -6.000138e-01 -6.030311e-01 -5.836031e-01 -5.572224e-01 -4.989270e-01 -4.260882e-01 -3.416549e-01 -2.484617e-01 -1.492119e-01 -4.649686e-02 5.715957e-02 1.592443e-01 2.571944e-01 3.483422e-01 4.298788e-01 4.988481e-01 5.521896e-01 5.868464e-01 5.999558e-01 5.891267e-01 5.527948e-01 4.906143e-01 4.038214e-01 2.954753e-01 1.704853e-01 3.535331e-02 -1.023703e-01 -2.348489e-01 -3.547900e-01 -4.561718e-01 -5.347212e-01 -5.880744e-01 -6.156481e-01 -6.183124e-01 -5.979821e-01 -5.639378e-01 -5.047913e-01 -4.309869e-01 -3.455106e-01 -2.512243e-01 -1.508505e-01 -4.699420e-02 5.781073e-02 1.610419e-01 2.601251e-01 3.523772e-01 4.349665e-01 5.049049e-01 5.590892e-01 5.944089e-01 6.079388e-01 5.972227e-01 5.606358e-01 4.977894e-01 4.099061e-01 3.000727e-01 1.732723e-01 3.612504e-02 -1.036704e-01 -2.381199e-01 -3.597892e-01 -4.625508e-01 -5.420725e-01 -5.959780e-01 -6.237092e-01 -6.261864e-01 -6.053865e-01 -5.639378e-01 -5.047913e-01 -4.309869e-01 -3.455106e-01 -2.512243e-01 -1.508505e-01 -4.699420e-02 5.781073e-02 1.610419e-01 2.601251e-01 3.523772e-01 4.349665e-01 5.049049e-01 5.590892e-01 5.944089e-01 6.079388e-01 5.972227e-01 5.606358e-01 4.977894e-01 4.099061e-01 3.000727e-01 1.732723e-01 3.612504e-02 -1.036704e-01 -2.381199e-01 -3.597892e-01 -4.625508e-01 -5.420725e-01 -5.959780e-01 -6.237092e-01 -6.261864e-01 -6.053865e-01 -5.572224e-01 -4.989270e-01 -4.260882e-01 -3.416549e-01 -2.484617e-01 -1.492119e-01 -4.649685e-02 5.715957e-02 1.592443e-01 2.571944e-01 3.483422e-01 4.298788e-01 4.988481e-01 5.521896e-01 5.868464e-01 5.999558e-01 5.891267e-01 5.527948e-01 4.906143e-01 4.038214e-01 2.954753e-01 1.704853e-01 3.535332e-02 -1.023703e-01 -2.348489e-01 -3.547900e-01 -4.561718e-01 -5.347212e-01 -5.880744e-01 -6.156481e-01 -6.183124e-01 -5.979821e-01 -5.441736e-01 -4.875262e-01 -4.165608e-01 -3.341542e-01 -2.430874e-01 -1.460255e-01 -4.553277e-02 5.588747e-02 1.557412e-01 2.514879e-01 3.404913e-01 4.199872e-01 4.870821e-01 5.387985e-01 5.721832e-01 5.844928e-01 5.734615e-01 5.376391e-01 4.767608e-01 3.920865e-01 2.866210e-01 1.651300e-01 3.388942e-02 -9.983492e-02 -2.285076e-01 -3.451081e-01 -4.438184e-01 -5.204800e-01 -5.727551e-01 -6.000138e-01 -6.030311e-01 -5.836031e-01 -5.255189e-01 -4.712137e-01 -4.029200e-01 -3.234108e-01 -2.353894e-01 -1.414645e-01 -4.415974e-02 5.405302e-02 1.507091e-01 2.433024e-01 3.292430e-01 4.058322e-01 4.702672e-01 5.196890e-01 5.512909e-01 5.624971e-01 5.512159e-01 5.161538e-01 4.571555e-01 3.755094e-01 2.741395e-01 1.576083e-01 3.187403e-02 -9.619413e-02 -2.194809e-01 -3.313459e-01 -4.262583e-01 -5.002238e-01 -5.509459e-01 -5.777329e-01 -5.812294e-01 -5.630667e-01 -5.022642e-01 -4.508553e-01 -3.858808e-01 -3.099835e-01 -2.257676e-01 -1.357687e-01 -4.245667e-02 5.173960e-02 1.443955e-01 2.330512e-01 3.151779e-01 3.881614e-01 4.493126e-01 4.959207e-01 5.253588e-01 5.352546e-01 5.237252e-01 4.896625e-01 4.330370e-01 3.551636e-01 2.588618e-01 1.484427e-01 2.947902e-02 -9.163904e-02 -2.083024e-01 -3.143305e-01 -4.045432e-01 -4.751519e-01 -5.239168e-01 -5.500787e-01 -5.541285e-01 -5.375010e-01 -4.756053e-01 -4.274834e-01 -3.662977e-01 -2.945409e-01 -2.147005e-01 -1.292244e-01 -4.051576e-02 4.905031e-02 1.371003e-01 2.212321e-01 2.989917e-01 3.678648e-01 4.252951e-01 4.687405e-01 4.957769e-01 5.042580e-01 4.925287e-01 4.596801e-01 4.058123e-01 3.322592e-01 2.417150e-01 1.382063e-01 2.687715e-02 -8.641014e-02 -1.956036e-01 -2.950307e-01 -3.799030e-01 -4.466676e-01 -4.931579e-01 -5.185492e-01 -5.231704e-01 -5.082421e-01 -4.468320e-01 -4.022158e-01 -3.450992e-01 -2.778109e-01 -2.027091e-01 -1.221417e-01 -3.843445e-02 4.610193e-02 1.291551e-01 2.083914e-01 2.814425e-01 3.459062e-01 3.993717e-01 4.394781e-01 4.640156e-01 4.710724e-01 4.592266e-01 4.277673e-01 3.769180e-01 3.080198e-01 2.236257e-01 1.274602e-01 2.422030e-02 -8.077682e-02 -1.820536e-01 -2.744632e-01 -3.536276e-01 -4.162470e-01 -4.602426e-01 -4.847347e-01 -4.898938e-01 -4.767242e-01 -4.172360e-01 -3.761788e-01 -3.232245e-01 -2.605320e-01 -1.903219e-01 -1.148341e-01 -3.630815e-02 4.301832e-02 1.209028e-01 1.950885e-01 2.633010e-01 3.232578e-01 3.726997e-01 4.094515e-01 4.315180e-01 4.372189e-01 4.253574e-01 3.954091e-01 3.477067e-01 2.835851e-01 2.054463e-01 1.167096e-01 2.162955e-02 -7.501237e-02 -1.683010e-01 -2.536067e-01 -3.269592e-01 -3.853174e-01 -4.267028e-01 -4.501948e-01 -4.558192e-01 -4.443741e-01 -3.880359e-01 -3.504418e-01 -3.015703e-01 -2.434110e-01 -1.780454e-01 -1.076005e-01 -3.422459e-02 3.992401e-02 1.126786e-01 1.818650e-01 2.453073e-01 3.008452e-01 3.463711e-01 3.798913e-01 3.996173e-01 4.040867e-01 3.923102e-01 3.639305e-01 3.193714e-01 2.599487e-01 1.879106e-01 1.063812e-01 1.919473e-02 -6.937092e-02 -1.549288e-01 -2.333362e-01 -3.010117e-01 -3.551676e-01 -3.939327e-01 -4.163619e-01 -4.223565e-01 -4.125273e-01 -3.603227e-01 -3.259697e-01 -2.809503e-01 -2.270924e-01 -1.663413e-01 -1.007123e-01 -3.226018e-02 3.693835e-02 1.047953e-01 1.692211e-01 2.281386e-01 2.795076e-01 3.213657e-01 3.518902e-01 3.694829e-01 3.728790e-01 3.612731e-01 3.344506e-01 2.929071e-01 2.379292e-01 1.716156e-01 9.681543e-02 1.697928e-02 -6.407132e-02 -1.424267e-01 -2.143862e-01 -2.767248e-01 -3.268933e-01 -3.631299e-01 -3.844803e-01 -3.907437e-01 -3.823682e-01 -3.350288e-01 -3.035942e-01 -2.620706e-01 -2.121374e-01 -1.556127e-01 -9.440493e-02 -3.047831e-02 3.417081e-02 9.753212e-02 1.575987e-01 2.123880e-01 2.599728e-01 2.985246e-01 3.263748e-01 3.420945e-01 3.445907e-01 3.332145e-01 3.078694e-01 2.691035e-01 2.181686e-01 1.570235e-01 8.827202e-02 1.502670e-02 -5.928934e-02 -1.311826e-01 -1.973390e-01 -2.548488e-01 -3.013784e-01 -3.352718e-01 -3.555780e-01 -3.620164e-01 -3.548990e-01 -3.129170e-01 -2.840021e-01 -2.455183e-01 -1.990149e-01 -1.461965e-01 -8.887433e-02 -2.892919e-02 3.171751e-02 9.112807e-02 1.473721e-01 1.985536e-01 2.428464e-01 2.785397e-01 3.040986e-01 3.182381e-01 3.200089e-01 3.088902e-01 2.848786e-01 2.485594e-01 2.011469e-01 1.444764e-01 8.094059e-02 1.336659e-02 -5.515732e-02 -1.214867e-01 -1.826325e-01 -2.359530e-01 -2.793018e-01 -3.111194e-01 -3.304662e-01 -3.370024e-01 -3.309308e-01 -2.945849e-01 -2.677362e-01 -2.317609e-01 -1.881002e-01 -1.383628e-01 -8.427685e-02 -2.765095e-02 2.965915e-02 8.577925e-02 1.388455e-01 1.870364e-01 2.286111e-01 2.619571e-01 2.856491e-01 2.985185e-01 2.997306e-01 2.888647e-01 2.659874e-01 2.317088e-01 1.872078e-01 1.342159e-01 7.495405e-02 1.201908e-02 -5.176876e-02 -1.135442e-01 -1.705794e-01 -2.204490e-01 -2.611605e-01 -2.912379e-01 -3.097566e-01 -3.163349e-01 -3.110920e-01 -2.804788e-01 -2.552057e-01 -2.211533e-01 -1.796794e-01 -1.323178e-01 -8.073144e-02 -2.667109e-02 2.806000e-02 8.163868e-02 1.322543e-01 1.781442e-01 2.176342e-01 2.491878e-01 2.714634e-01 2.833801e-01 2.841883e-01 2.735406e-01 2.515535e-01 2.188523e-01 1.765858e-01 1.264055e-01 7.040154e-02 1.099797e-02 -4.918565e-02 -1.074928e-01 -1.613911e-01 -2.086189e-01 -2.473012e-01 -2.760277e-01 -2.938891e-01 -3.004757e-01 -2.958466e-01 -2.709116e-01 -2.467000e-01 -2.139482e-01 -1.739570e-01 -1.282093e-01 -7.832290e-02 -2.600837e-02 2.696776e-02 7.881800e-02 1.277688e-01 1.720981e-01 2.101775e-01 2.405223e-01 2.618471e-01 2.731297e-01 2.736769e-01 2.631887e-01 2.418139e-01 2.101858e-01 1.694320e-01 1.211491e-01 6.733970e-02 1.031250e-02 -4.744621e-02 -1.034185e-01 -1.552022e-01 -2.006448e-01 -2.379508e-01 -2.657553e-01 -2.831610e-01 -2.897414e-01 -2.855168e-01 -2.660806e-01 -2.424028e-01 -2.103065e-01 -1.710639e-01 -1.261321e-01 -7.710547e-02 -2.567428e-02 2.641385e-02 7.738982e-02 1.254991e-01 1.690403e-01 2.064086e-01 2.361450e-01 2.569928e-01 2.679589e-01 2.683780e-01 2.579741e-01 2.369110e-01 2.058258e-01 1.658349e-01 1.185072e-01 6.580131e-02 9.968392e-03 -4.657181e-02 -1.013704e-01 -1.520902e-01 -1.966334e-01 -2.332444e-01 -2.605816e-01 -2.777542e-01 -2.843277e-01 -2.803038e-01 -2.709116e-01 -2.467000e-01 -2.139482e-01 -1.739570e-01 -1.282093e-01 -7.832291e-02 -2.600837e-02 2.696776e-02 7.881800e-02 1.277688e-01 1.720981e-01 2.101775e-01 2.405223e-01 2.618471e-01 2.731297e-01 2.736769e-01 2.631887e-01 2.418139e-01 2.101859e-01 1.694320e-01 1.211491e-01 6.733969e-02 1.031250e-02 -4.744621e-02 -1.034185e-01 -1.552022e-01 -2.006448e-01 -2.379508e-01 -2.657553e-01 -2.831610e-01 -2.897414e-01 -2.855168e-01 -2.759972e-01 -2.512147e-01 -2.177673e-01 -1.769864e-01 -1.303818e-01 -7.959490e-02 -2.635704e-02 2.754650e-02 8.031011e-02 1.301413e-01 1.752971e-01 2.141253e-01 2.451139e-01 2.669477e-01 2.785728e-01 2.792654e-01 2.686993e-01 2.470049e-01 2.148101e-01 1.732529e-01 1.239584e-01 6.897600e-02 1.067644e-02 -4.838179e-02 -1.056054e-01 -1.585214e-01 -2.049178e-01 -2.429563e-01 -2.712478e-01 -2.888895e-01 -2.954648e-01 -2.910162e-01 -2.860767e-01 -2.601572e-01 -2.253285e-01 -1.829819e-01 -1.346808e-01 -8.211264e-02 -2.704908e-02 2.868819e-02 8.325835e-02 1.348322e-01 1.816257e-01 2.219400e-01 2.542093e-01 2.770587e-01 2.893712e-01 2.903613e-01 2.796492e-01 2.573279e-01 2.240127e-01 1.808613e-01 1.295555e-01 7.223743e-02 1.140247e-02 -5.024581e-02 -1.099625e-01 -1.651323e-01 -2.134242e-01 -2.529144e-01 -2.821669e-01 -3.002686e-01 -3.068250e-01 -3.019233e-01 -3.009582e-01 -2.733470e-01 -2.364718e-01 -1.918130e-01 -1.410116e-01 -8.582183e-02 -2.807318e-02 3.036084e-02 8.758932e-02 1.417304e-01 1.909412e-01 2.334546e-01 2.676259e-01 2.919915e-01 3.053399e-01 3.067918e-01 2.958850e-01 2.726538e-01 2.376915e-01 1.921825e-01 1.378911e-01 7.709836e-02 1.248669e-02 -5.302098e-02 -1.164505e-01 -1.749714e-01 -2.260741e-01 -2.677079e-01 -2.983683e-01 -3.171311e-01 -3.236374e-01 -3.180452e-01 -3.203335e-01 -2.904964e-01 -2.509449e-01 -2.032742e-01 -1.492254e-01 -9.063705e-02 -2.941074e-02 3.251576e-02 9.318958e-02 1.506635e-01 2.030204e-01 2.484060e-01 2.850735e-01 3.114432e-01 3.261777e-01 3.282716e-01 3.171494e-01 2.927622e-01 2.556687e-01 2.070834e-01 1.488764e-01 8.351211e-02 1.392280e-02 -5.667405e-02 -1.249956e-01 -1.879227e-01 -2.427073e-01 -2.871320e-01 -3.196065e-01 -3.391969e-01 -3.455987e-01 -3.390684e-01 -3.437574e-01 -3.111946e-01 -2.683893e-01 -2.170757e-01 -1.591128e-01 -9.643757e-02 -3.103414e-02 3.508693e-02 9.990273e-02 1.613914e-01 2.175501e-01 2.664218e-01 3.061373e-01 3.349753e-01 3.514426e-01 3.543748e-01 3.430508e-01 3.173109e-01 2.776621e-01 2.253481e-01 1.623646e-01 9.140100e-02 1.570102e-02 -6.114756e-02 -1.354732e-01 -2.037937e-01 -2.630640e-01 -3.108631e-01 -3.455009e-01 -3.660416e-01 -3.722572e-01 -3.645340e-01 -3.706247e-01 -3.348891e-01 -2.883279e-01 -2.328336e-01 -1.703972e-01 -1.030633e-01 -3.290468e-02 3.799105e-02 1.075270e-01 1.736018e-01 2.341190e-01 2.870077e-01 3.302600e-01 3.619906e-01 3.805231e-01 3.845020e-01 3.730273e-01 3.457985e-01 3.032495e-01 2.466475e-01 1.781282e-01 1.006430e-01 1.780625e-02 -6.635012e-02 -1.476867e-01 -2.222858e-01 -2.867490e-01 -3.384190e-01 -3.754976e-01 -3.970596e-01 -4.029802e-01 -3.938093e-01 -4.001509e-01 -3.608722e-01 -3.101548e-01 -2.500637e-01 -1.827305e-01 -1.103119e-01 -3.497075e-02 4.112824e-02 1.158146e-01 1.869067e-01 2.522116e-01 3.095379e-01 3.567271e-01 3.917128e-01 4.126114e-01 4.178474e-01 4.063095e-01 3.775251e-01 3.318303e-01 2.705044e-01 1.958312e-01 1.110553e-01 2.021442e-02 -7.214673e-02 -1.613463e-01 -2.429627e-01 -3.131938e-01 -3.691186e-01 -4.088288e-01 -4.314273e-01 -4.369228e-01 -4.260631e-01 -4.313626e-01 -3.882756e-01 -3.331330e-01 -2.681804e-01 -1.956927e-01 -1.179380e-01 -3.716658e-02 4.438411e-02 1.244742e-01 2.008451e-01 2.712092e-01 3.332527e-01 3.846608e-01 4.231747e-01 4.466858e-01 4.533748e-01 4.418904e-01 4.115578e-01 3.625891e-01 2.962598e-01 2.150026e-01 1.223770e-01 2.288684e-02 -7.835154e-02 -1.760492e-01 -2.652223e-01 -3.416226e-01 -4.020465e-01 -4.444797e-01 -4.680752e-01 -4.730057e-01 -4.602495e-01 -4.631041e-01 -4.160791e-01 -3.564039e-01 -2.865050e-01 -2.087980e-01 -1.256568e-01 -3.941208e-02 4.763320e-02 1.331772e-01 2.148915e-01 2.903992e-01 3.572680e-01 4.130273e-01 4.552218e-01 4.815088e-01 4.898090e-01 4.785101e-01 4.467097e-01 3.944712e-01 3.230473e-01 2.350126e-01 1.342518e-01 2.576219e-02 -8.472605e-02 -1.912694e-01 -2.882789e-01 -3.710318e-01 -4.360335e-01 -4.811736e-01 -5.056782e-01 -5.099125e-01 -4.951113e-01 -4.940664e-01 -4.431387e-01 -3.790117e-01 -3.042863e-01 -2.215096e-01 -1.331520e-01 -4.161452e-02 5.074391e-02 1.415692e-01 2.284725e-01 3.089970e-01 3.806003e-01 4.406635e-01 4.865390e-01 5.156508e-01 5.256556e-01 5.146692e-01 4.815461e-01 4.261816e-01 3.497865e-01 2.550634e-01 1.462173e-01 2.874708e-02 -9.098600e-02 -2.063616e-01 -3.111669e-01 -4.001958e-01 -4.696663e-01 -5.173867e-01 -5.426771e-01 -5.461152e-01 -5.292078e-01 -5.228439e-01 -4.682362e-01 -3.999458e-01 -3.207331e-01 -2.332630e-01 -1.400894e-01 -4.367229e-02 5.358470e-02 1.492857e-01 2.409926e-01 3.261801e-01 4.022090e-01 4.663253e-01 5.157034e-01 5.475460e-01 5.592552e-01 5.486796e-01 5.144285e-01 4.562201e-01 3.752073e-01 2.742013e-01 1.577072e-01 3.170765e-02 -9.681930e-02 -2.205888e-01 -3.327770e-01 -4.277108e-01 -5.013389e-01 -5.514062e-01 -5.773397e-01 -5.799369e-01 -5.609760e-01 -5.480173e-01 -4.901507e-01 -4.181986e-01 -3.350598e-01 -2.434984e-01 -1.461366e-01 -4.548095e-02 5.603103e-02 1.559724e-01 2.518668e-01 3.411345e-01 4.210551e-01 4.887594e-01 5.412662e-01 5.755820e-01 5.888789e-01 5.787606e-01 5.436064e-01 4.829625e-01 3.979159e-01 2.913633e-01 1.680739e-01 3.446706e-02 -1.019143e-01 -2.331743e-01 -3.519301e-01 -4.520863e-01 -5.293560e-01 -5.814384e-01 -6.078692e-01 -6.096546e-01 -5.888246e-01 -5.682583e-01 -5.077454e-01 -4.328365e-01 -3.465402e-01 -2.516984e-01 -1.509853e-01 -4.694115e-02 5.797255e-02 1.613074e-01 2.605598e-01 3.531094e-01 4.361735e-01 5.067918e-01 5.618587e-01 5.982209e-01 6.128611e-01 6.031781e-01 5.673561e-01 5.047914e-01 4.165073e-01 3.054623e-01 1.766382e-01 3.681507e-02 -1.059921e-01 -2.433756e-01 -3.674855e-01 -4.718789e-01 -5.520810e-01 -6.057603e-01 -6.325499e-01 -6.336341e-01 -6.112547e-01 -5.824414e-01 -5.200610e-01 -4.430737e-01 -3.545648e-01 -2.574292e-01 -1.543760e-01 -4.796752e-02 5.931975e-02 1.650242e-01 2.666252e-01 3.614753e-01 4.467498e-01 5.194258e-01 5.763104e-01 6.141375e-01 6.297547e-01 6.204132e-01 5.841551e-01 5.202650e-01 4.297161e-01 3.155065e-01 1.827670e-01 3.853545e-02 -1.088328e-01 -2.505602e-01 -3.784608e-01 -4.858436e-01 -5.681030e-01 -6.228902e-01 -6.499110e-01 -6.504797e-01 -6.269911e-01 -5.897485e-01 -5.264018e-01 -4.483417e-01 -3.586927e-01 -2.603769e-01 -1.561207e-01 -4.849735e-02 6.000964e-02 1.669324e-01 2.697419e-01 3.657776e-01 4.521934e-01 5.259346e-01 5.837633e-01 6.223552e-01 6.384874e-01 6.293336e-01 5.928610e-01 5.282949e-01 4.365804e-01 3.207352e-01 1.859668e-01 3.944732e-02 -1.102892e-01 -2.542714e-01 -3.841374e-01 -4.930669e-01 -5.763874e-01 -6.317420e-01 -6.588758e-01 -6.591715e-01 -6.351044e-01 -5.897485e-01 -5.264018e-01 -4.483417e-01 -3.586927e-01 -2.603769e-01 -1.561207e-01 -4.849735e-02 6.000964e-02 1.669324e-01 2.697419e-01 3.657776e-01 4.521934e-01 5.259346e-01 5.837633e-01 6.223552e-01 6.384874e-01 6.293336e-01 5.928610e-01 5.282949e-01 4.365804e-01 3.207352e-01 1.859668e-01 3.944733e-02 -1.102892e-01 -2.542714e-01 -3.841374e-01 -4.930669e-01 -5.763874e-01 -6.317420e-01 -6.588758e-01 -6.591715e-01 -6.351044e-01 -5.824414e-01 -5.200610e-01 -4.430737e-01 -3.545648e-01 -2.574292e-01 -1.543760e-01 -4.796753e-02 5.931976e-02 1.650242e-01 2.666252e-01 3.614753e-01 4.467498e-01 5.194258e-01 5.763104e-01 6.141375e-01 6.297547e-01 6.204132e-01 5.841551e-01 5.202650e-01 4.297161e-01 3.155065e-01 1.827670e-01 3.853545e-02 -1.088328e-01 -2.505602e-01 -3.784608e-01 -4.858436e-01 -5.681030e-01 -6.228902e-01 -6.499110e-01 -6.504797e-01 -6.269911e-01 -5.682583e-01 -5.077454e-01 -4.328365e-01 -3.465402e-01 -2.516984e-01 -1.509853e-01 -4.694115e-02 5.797254e-02 1.613074e-01 2.605598e-01 3.531094e-01 4.361734e-01 5.067918e-01 5.618587e-01 5.982209e-01 6.128611e-01 6.031781e-01 5.673561e-01 5.047914e-01 4.165073e-01 3.054623e-01 1.766382e-01 3.681507e-02 -1.059922e-01 -2.433756e-01 -3.674855e-01 -4.718789e-01 -5.520810e-01 -6.057603e-01 -6.325499e-01 -6.336341e-01 -6.112547e-01 -5.480173e-01 -4.901507e-01 -4.181986e-01 -3.350598e-01 -2.434984e-01 -1.461366e-01 -4.548095e-02 5.603103e-02 1.559724e-01 2.518668e-01 3.411345e-01 4.210551e-01 4.887594e-01 5.412662e-01 5.755820e-01 5.888789e-01 5.787606e-01 5.436064e-01 4.829625e-01 3.979159e-01 2.913633e-01 1.680739e-01 3.446706e-02 -1.019143e-01 -2.331743e-01 -3.519301e-01 -4.520863e-01 -5.293560e-01 -5.814384e-01 -6.078692e-01 -6.096546e-01 -5.888246e-01 -5.228439e-01 -4.682362e-01 -3.999458e-01 -3.207331e-01 -2.332630e-01 -1.400894e-01 -4.367228e-02 5.358470e-02 1.492858e-01 2.409926e-01 3.261802e-01 4.022090e-01 4.663253e-01 5.157034e-01 5.475460e-01 5.592552e-01 5.486796e-01 5.144285e-01 4.562201e-01 3.752073e-01 2.742013e-01 1.577072e-01 3.170766e-02 -9.681930e-02 -2.205888e-01 -3.327770e-01 -4.277108e-01 -5.013389e-01 -5.514062e-01 -5.773397e-01 -5.799369e-01 -5.609760e-01 -4.940664e-01 -4.431387e-01 -3.790117e-01 -3.042863e-01 -2.215096e-01 -1.331520e-01 -4.161452e-02 5.074391e-02 1.415692e-01 2.284725e-01 3.089970e-01 3.806003e-01 4.406635e-01 4.865390e-01 5.156508e-01 5.256556e-01 5.146692e-01 4.815461e-01 4.261816e-01 3.497865e-01 2.550634e-01 1.462173e-01 2.874707e-02 -9.098600e-02 -2.063616e-01 -3.111669e-01 -4.001958e-01 -4.696663e-01 -5.173867e-01 -5.426771e-01 -5.461152e-01 -5.292078e-01 -4.631041e-01 -4.160791e-01 -3.564039e-01 -2.865050e-01 -2.087980e-01 -1.256568e-01 -3.941208e-02 4.763319e-02 1.331772e-01 2.148915e-01 2.903992e-01 3.572680e-01 4.130274e-01 4.552218e-01 4.815088e-01 4.898090e-01 4.785101e-01 4.467097e-01 3.944712e-01 3.230473e-01 2.350127e-01 1.342518e-01 2.576219e-02 -8.472605e-02 -1.912694e-01 -2.882789e-01 -3.710318e-01 -4.360335e-01 -4.811736e-01 -5.056782e-01 -5.099125e-01 -4.951113e-01 -4.313626e-01 -3.882756e-01 -3.331330e-01 -2.681804e-01 -1.956927e-01 -1.179380e-01 -3.716659e-02 4.438411e-02 1.244742e-01 2.008451e-01 2.712092e-01 3.332527e-01 3.846608e-01 4.231747e-01 4.466858e-01 4.533748e-01 4.418904e-01 4.115578e-01 3.625891e-01 2.962598e-01 2.150026e-01 1.223770e-01 2.288684e-02 -7.835154e-02 -1.760492e-01 -2.652223e-01 -3.416226e-01 -4.020465e-01 -4.444797e-01 -4.680752e-01 -4.730057e-01 -4.602495e-01 -4.001509e-01 -3.608722e-01 -3.101548e-01 -2.500637e-01 -1.827305e-01 -1.103119e-01 -3.497075e-02 4.112823e-02 1.158146e-01 1.869067e-01 2.522116e-01 3.095379e-01 3.567271e-01 3.917128e-01 4.126114e-01 4.178474e-01 4.063095e-01 3.775251e-01 3.318303e-01 2.705044e-01 1.958312e-01 1.110553e-01 2.021442e-02 -7.214673e-02 -1.613463e-01 -2.429627e-01 -3.131938e-01 -3.691186e-01 -4.088288e-01 -4.314273e-01 -4.369228e-01 -4.260631e-01 -3.706247e-01 -3.348891e-01 -2.883279e-01 -2.328336e-01 -1.703972e-01 -1.030633e-01 -3.290468e-02 3.799105e-02 1.075270e-01 1.736018e-01 2.341190e-01 2.870077e-01 3.302600e-01 3.619906e-01 3.805231e-01 3.845020e-01 3.730272e-01 3.457985e-01 3.032495e-01 2.466475e-01 1.781281e-01 1.006430e-01 1.780625e-02 -6.635012e-02 -1.476867e-01 -2.222858e-01 -2.867490e-01 -3.384190e-01 -3.754976e-01 -3.970596e-01 -4.029802e-01 -3.938093e-01 -3.437574e-01 -3.111946e-01 -2.683893e-01 -2.170757e-01 -1.591127e-01 -9.643757e-02 -3.103413e-02 3.508693e-02 9.990273e-02 1.613914e-01 2.175501e-01 2.664218e-01 3.061373e-01 3.349753e-01 3.514426e-01 3.543748e-01 3.430508e-01 3.173109e-01 2.776621e-01 2.253481e-01 1.623647e-01 9.140099e-02 1.570102e-02 -6.114756e-02 -1.354732e-01 -2.037937e-01 -2.630640e-01 -3.108631e-01 -3.455009e-01 -3.660416e-01 -3.722572e-01 -3.645340e-01 -3.203335e-01 -2.904964e-01 -2.509449e-01 -2.032742e-01 -1.492254e-01 -9.063705e-02 -2.941075e-02 3.251576e-02 9.318957e-02 1.506635e-01 2.030204e-01 2.484060e-01 2.850735e-01 3.114432e-01 3.261777e-01 3.282716e-01 3.171494e-01 2.927622e-01 2.556687e-01 2.070834e-01 1.488764e-01 8.351211e-02 1.392279e-02 -5.667405e-02 -1.249956e-01 -1.879227e-01 -2.427073e-01 -2.871320e-01 -3.196065e-01 -3.391969e-01 -3.455987e-01 -3.390684e-01 -3.009582e-01 -2.733470e-01 -2.364718e-01 -1.918130e-01 -1.410116e-01 -8.582184e-02 -2.807318e-02 3.036084e-02 8.758932e-02 1.417304e-01 1.909413e-01 2.334546e-01 2.676259e-01 2.919915e-01 3.053399e-01 3.067918e-01 2.958850e-01 2.726538e-01 2.376915e-01 1.921825e-01 1.378911e-01 7.709836e-02 1.248670e-02 -5.302098e-02 -1.164505e-01 -1.749714e-01 -2.260741e-01 -2.677079e-01 -2.983683e-01 -3.171311e-01 -3.236374e-01 -3.180452e-01 -2.860767e-01 -2.601572e-01 -2.253285e-01 -1.829819e-01 -1.346808e-01 -8.211263e-02 -2.704909e-02 2.868819e-02 8.325835e-02 1.348322e-01 1.816257e-01 2.219400e-01 2.542093e-01 2.770587e-01 2.893712e-01 2.903613e-01 2.796492e-01 2.573279e-01 2.240127e-01 1.808613e-01 1.295555e-01 7.223743e-02 1.140247e-02 -5.024581e-02 -1.099625e-01 -1.651323e-01 -2.134242e-01 -2.529144e-01 -2.821669e-01 -3.002686e-01 -3.068250e-01 -3.019233e-01 -2.759972e-01 -2.512147e-01 -2.177673e-01 -1.769864e-01 -1.303818e-01 -7.959491e-02 -2.635704e-02 2.754650e-02 8.031011e-02 1.301413e-01 1.752971e-01 2.141253e-01 2.451139e-01 2.669477e-01 2.785728e-01 2.792654e-01 2.686993e-01 2.470049e-01 2.148101e-01 1.732529e-01 1.239584e-01 6.897600e-02 1.067644e-02 -4.838180e-02 -1.056054e-01 -1.585214e-01 -2.049178e-01 -2.429563e-01 -2.712478e-01 -2.888895e-01 -2.954648e-01 -2.910162e-01 -2.709116e-01 -2.467000e-01 -2.139482e-01 -1.739570e-01 -1.282093e-01 -7.832290e-02 -2.600837e-02 2.696776e-02 7.881800e-02 1.277688e-01 1.720981e-01 2.101775e-01 2.405223e-01 2.618471e-01 2.731297e-01 2.736769e-01 2.631887e-01 2.418139e-01 2.101858e-01 1.694320e-01 1.211491e-01 6.733970e-02 1.031250e-02 -4.744621e-02 -1.034185e-01 -1.552022e-01 -2.006448e-01 -2.379508e-01 -2.657553e-01 -2.831610e-01 -2.897414e-01 -2.855168e-01 -2.804788e-01 -2.552057e-01 -2.211534e-01 -1.796794e-01 -1.323178e-01 -8.073144e-02 -2.667109e-02 2.806000e-02 8.163868e-02 1.322543e-01 1.781442e-01 2.176342e-01 2.491878e-01 2.714634e-01 2.833801e-01 2.841883e-01 2.735405e-01 2.515535e-01 2.188523e-01 1.765858e-01 1.264055e-01 7.040154e-02 1.099797e-02 -4.918564e-02 -1.074928e-01 -1.613911e-01 -2.086189e-01 -2.473012e-01 -2.760277e-01 -2.938891e-01 -3.004757e-01 -2.958466e-01 -2.860767e-01 -2.601572e-01 -2.253285e-01 -1.829819e-01 -1.346808e-01 -8.211264e-02 -2.704908e-02 2.868819e-02 8.325835e-02 1.348322e-01 1.816257e-01 2.219400e-01 2.542093e-01 2.770587e-01 2.893712e-01 2.903613e-01 2.796492e-01 2.573279e-01 2.240127e-01 1.808613e-01 1.295555e-01 7.223743e-02 1.140247e-02 -5.024581e-02 -1.099625e-01 -1.651323e-01 -2.134242e-01 -2.529144e-01 -2.821669e-01 -3.002686e-01 -3.068250e-01 -3.019233e-01 -2.971882e-01 -2.699781e-01 -2.336041e-01 -1.895249e-01 -1.393614e-01 -8.484905e-02 -2.780007e-02 2.992832e-02 8.646124e-02 1.399334e-01 1.885197e-01 2.304724e-01 2.641678e-01 2.881649e-01 3.012744e-01 3.026379e-01 2.918097e-01 2.688341e-01 2.343049e-01 1.893956e-01 1.358473e-01 7.590655e-02 1.221173e-02 -5.236391e-02 -1.148969e-01 -1.726041e-01 -2.230154e-01 -2.641095e-01 -2.943997e-01 -3.129678e-01 -3.194512e-01 -3.139959e-01 -3.136338e-01 -2.844950e-01 -2.458241e-01 -1.991792e-01 -1.462651e-01 -8.888654e-02 -2.891325e-02 3.174737e-02 9.117248e-02 1.474458e-01 1.986831e-01 2.430659e-01 2.788855e-01 3.046024e-01 3.189189e-01 3.208654e-01 3.098948e-01 2.859737e-01 2.496593e-01 2.021448e-01 1.452576e-01 8.139989e-02 1.342638e-02 -5.553157e-02 -1.222783e-01 -1.837749e-01 -2.373409e-01 -2.808090e-01 -3.126198e-01 -3.318519e-01 -3.381960e-01 -3.318902e-01 -3.351180e-01 -3.034262e-01 -2.617373e-01 -2.117384e-01 -1.552416e-01 -9.413876e-02 -3.037048e-02 3.409460e-02 9.727530e-02 1.571927e-01 2.118891e-01 2.594557e-01 2.980745e-01 3.260765e-01 3.420191e-01 3.447826e-01 3.336793e-01 3.085653e-01 2.699409e-01 2.190178e-01 1.577330e-01 8.869436e-02 1.504738e-02 -5.972661e-02 -1.320614e-01 -1.985712e-01 -2.562910e-01 -3.028608e-01 -3.366301e-01 -3.566818e-01 -3.627868e-01 