<VTKFile type="RectilinearGrid">
<RectilinearGrid WholeExtent="0 32 0 32 0 32" GhostLevel="0">
<Piece Extent="0 32 0 32 0 32">
<CellData Scalars="p phase" Vectors="vel">
<DataArray type="Float32" Name="p">
-2.520413e-01 -2.264113e-01 -1.930176e-01 -1.531429e-01 -1.082312e-01 -5.984630e-02 -9.633475e-03 4.071397e-02 8.948828e-02 1.350022e-01 1.756267e-01 2.098343e-01 2.362507e-01 2.537116e-01 2.613262e-01 2.585413e-01 2.452021e-01 2.215998e-01 1.884990e-01 1.471350e-01 9.917641e-02 4.665032e-02 -8.165272e-03 -6.287355e-02 -1.151007e-01 -1.626335e-01 -2.035373e-01 -2.362453e-01 -2.596137e-01 -2.729425e-01 -2.759677e-01 -2.688323e-01 -2.565919e-01 -2.304037e-01 -1.963434e-01 -1.557209e-01 -1.100043e-01 -6.077820e-02 -9.707415e-03 4.149725e-02 9.111073e-02 1.374268e-01 1.787956e-01 2.136668e-01 2.406396e-01 2.585214e-01 2.663927e-01 2.636734e-01 2.501871e-01 2.262127e-01 1.925149e-01 1.503449e-01 1.014034e-01 4.776597e-02 -8.229366e-03 -6.411843e-02 -1.174602e-01 -1.659804e-01 -2.076959e-01 -2.410068e-01 -2.647527e-01 -2.782328e-01 -2.811954e-01 -2.738044e-01 -2.656024e-01 -2.383050e-01 -2.029236e-01 -1.608208e-01 -1.135120e-01 -6.262353e-02 -9.857035e-03 4.304209e-02 9.431461e-02 1.422180e-01 1.850621e-01 2.212503e-01 2.493300e-01 2.680524e-01 2.764400e-01 2.738587e-01 2.600884e-01 2.353817e-01 2.005028e-01 1.567335e-01 1.058389e-01 4.999022e-02 -8.353307e-03 -6.659271e-02 -1.221518e-01 -1.726345e-01 -2.159604e-01 -2.504641e-01 -2.749533e-01 -2.887270e-01 -2.915583e-01 -2.836547e-01 -2.788843e-01 -2.499434e-01 -2.126107e-01 -1.683267e-01 -1.186756e-01 -6.534363e-02 -1.008560e-02 4.530389e-02 9.901660e-02 1.492581e-01 1.942795e-01 2.324168e-01 2.621411e-01 2.821198e-01 2.912883e-01 2.889307e-01 2.747586e-01 2.489838e-01 2.123667e-01 1.662325e-01 1.124411e-01 5.330745e-02 -8.527558e-03 -7.026160e-02 -1.291147e-01 -1.825077e-01 -2.282152e-01 -2.644752e-01 -2.900505e-01 -3.042419e-01 -3.068629e-01 -2.981877e-01 -2.961396e-01 -2.650484e-01 -2.251742e-01 -1.780579e-01 -1.253716e-01 -6.887747e-02 -1.039664e-02 4.821511e-02 1.050888e-01 1.583648e-01 2.062196e-01 2.469031e-01 2.787872e-01 3.004286e-01 3.106476e-01 3.086166e-01 2.939542e-01 2.668124e-01 2.279424e-01 1.787229e-01 1.211372e-01 5.768976e-02 -8.735490e-03 -7.506403e-02 -1.382429e-01 -1.954489e-01 -2.442647e-01 -2.828033e-01 -3.097722e-01 -3.244798e-01 -3.267975e-01 -3.170914e-01 -3.169451e-01 -2.832385e-01 -2.402902e-01 -1.897612e-01 -1.334272e-01 -7.313860e-02 -1.079273e-02 5.168499e-02 1.123563e-01 1.692862e-01 2.205649e-01 2.643396e-01 2.988626e-01 3.225557e-01 3.340956e-01 3.325139e-01 3.173088e-01 2.885518e-01 2.469749e-01 1.940169e-01 1.318095e-01 6.309136e-02 -8.951366e-03 -8.090303e-02 -1.493689e-01 -2.112216e-01 -2.638076e-01 -3.050894e-01 -3.337127e-01 -3.490030e-01 -3.509101e-01 -3.399185e-01 -3.407358e-01 -3.040090e-01 -2.575327e-01 -2.031044e-01 -1.426151e-01 -7.801171e-02 -1.127360e-02 5.559944e-02 1.205952e-01 1.816975e-01 2.369012e-01 2.842390e-01 3.218265e-01 3.479291e-01 3.610534e-01 3.600619e-01 3.443037e-01 3.137463e-01 2.690893e-01 2.118335e-01 1.442795e-01 6.944016e-02 -9.139062e-03 -8.763519e-02 -1.622452e-01 -2.294797e-01 -2.864083e-01 -3.308222e-01 -3.613030e-01 -3.772067e-01 -3.785843e-01 -3.660663e-01 -3.667933e-01 -3.267226e-01 -2.763670e-01 -2.176717e-01 -1.526504e-01 -8.335015e-02 -1.183422e-02 5.982260e-02 1.295332e-01 1.951986e-01 2.547136e-01 3.059889e-01 3.469909e-01 3.758109e-01 3.907631e-01 3.905143e-01 3.742364e-01 3.417683e-01 2.937603e-01 2.317717e-01 1.582869e-01 7.662681e-02 -9.253066e-03 -9.506157e-02 -1.765257e-01 -2.497424e-01 -3.114687e-01 -3.593087e-01 -3.917830e-01 -4.082942e-01 -4.090189e-01 -3.947603e-01 -3.942417e-01 -3.506089e-01 -2.961501e-01 -2.329645e-01 -1.631906e-01 -8.897495e-02 -1.246262e-02 6.419965e-02 1.388532e-01 2.093176e-01 2.733886e-01 3.288510e-01 3.735159e-01 4.052884e-01 4.222732e-01 4.229189e-01 4.061960e-01 3.717899e-01 3.202826e-01 2.532837e-01 1.734685e-01 8.449094e-02 -9.242915e-03 -1.029228e-01 -1.917540e-01 -2.713762e-01 -3.382067e-01 -3.896531e-01 -4.241821e-01 -4.412614e-01 -4.412164e-01 -4.250474e-01 -4.220580e-01 -3.747744e-01 -3.161405e-01 -2.484092e-01 -1.738408e-01 -9.467697e-02 -1.313854e-02 6.856205e-02 1.482006e-01 2.235211e-01 2.922242e-01 3.519719e-01 4.004186e-01 4.352789e-01 4.544382e-01 4.561126e-01 4.390516e-01 4.027664e-01 3.477516e-01 2.756544e-01 1.893394e-01 9.280622e-02 -9.062484e-03 -1.109023e-01 -2.073603e-01 -2.935895e-01 -3.656502e-01 -4.207521e-01 -4.573182e-01 -4.748987e-01 -4.739888e-01 -4.558039e-01 -4.491007e-01 -3.982290e-01 -3.355201e-01 -2.633742e-01 -1.841655e-01 -1.002224e-01 -1.383283e-02 7.273368e-02 1.571959e-01 2.372309e-01 3.104523e-01 3.744068e-01 4.265985e-01 4.645548e-01 4.859419e-01 4.887389e-01 4.714647e-01 4.334421e-01 3.750621e-01 2.979941e-01 2.052817e-01 1.012672e-01 -8.683873e-03 -1.186401e-01 -2.226761e-01 -3.154472e-01 -3.926544e-01 -4.513150e-01 -4.898202e-01 -5.078178e-01 -5.059861e-01 -4.857653e-01 -4.741584e-01 -4.199286e-01 -3.534301e-01 -2.771978e-01 -1.937076e-01 -1.053629e-01 -1.450832e-02 7.653934e-02 1.654520e-01 2.498501e-01 3.272719e-01 3.951608e-01 4.508835e-01 4.917931e-01 5.153478e-01 5.192973e-01 5.019332e-01 4.623870e-01 4.009359e-01 3.192557e-01 2.205497e-01 1.094829e-01 -8.113992e-03 -1.257589e-01 -2.369678e-01 -3.359127e-01 -4.179492e-01 -4.799160e-01 -5.201847e-01 -5.385091e-01 -5.357532e-01 -5.135798e-01 -4.960204e-01 -4.388350e-01 -3.690200e-01 -2.892258e-01 -2.020139e-01 -1.098496e-01 -1.512265e-02 7.981367e-02 1.725946e-01 2.607958e-01 3.418934e-01 4.132440e-01 4.720962e-01 5.156502e-01 5.411795e-01 5.462268e-01 5.288744e-01 4.880731e-01 4.239861e-01 3.382828e-01 2.342990e-01 1.169853e-01 -7.408605e-03 -1.318984e-01 -2.494904e-01 -3.539161e-01 -4.402193e-01 -5.050820e-01 -5.468664e-01 -5.654307e-01 -5.618148e-01 -5.378872e-01 -5.135614e-01 -4.539879e-01 -3.815051e-01 -2.988551e-01 -2.086664e-01 -1.134510e-01 -1.563208e-02 8.241058e-02 1.782859e-01 2.695364e-01 3.535912e-01 4.277392e-01 4.891357e-01 5.348583e-01 5.620300e-01 5.680229e-01 5.507444e-01 5.089907e-01 4.428232e-01 3.538966e-01 2.456480e-01 1.232585e-01 -6.675918e-03 -1.367533e-01 -2.595549e-01 -3.684460e-01 -4.582126e-01 -5.254101e-01 -5.683976e-01 -5.871258e-01 -5.827851e-01 -5.574165e-01 -5.258332e-01 -4.645804e-01 -3.902278e-01 -3.055812e-01 -2.133145e-01 -1.159715e-01 -1.599720e-02 8.421166e-02 1.822472e-01 2.756301e-01 3.617580e-01 4.378740e-01 5.010686e-01 5.483336e-01 5.766861e-01 5.833762e-01 5.661854e-01 5.237966e-01 4.561945e-01 3.650177e-01 2.537708e-01 1.277964e-01 -6.061153e-03 -1.400994e-01 -2.665941e-01 -3.786474e-01 -4.708606e-01 -5.396994e-01 -5.835233e-01 -6.023521e-01 -5.974866e-01 -5.710930e-01 -5.321494e-01 -4.700296e-01 -3.947135e-01 -3.090396e-01 -2.157050e-01 -1.172691e-01 -1.618788e-02 8.513374e-02 1.842796e-01 2.787598e-01 3.659563e-01 4.430887e-01 5.072145e-01 5.552817e-01 5.842523e-01 5.913131e-01 5.741794e-01 5.314746e-01 4.631416e-01 3.708089e-01 2.580145e-01 1.301841e-01 -5.708204e-03 -1.418022e-01 -2.702136e-01 -3.839071e-01 -4.773877e-01 -5.470744e-01 -5.913274e-01 -6.102039e-01 -6.050628e-01 -5.781363e-01 -5.321494e-01 -4.700296e-01 -3.947135e-01 -3.090396e-01 -2.157050e-01 -1.172691e-01 -1.618787e-02 8.513374e-02 1.842796e-01 2.787598e-01 3.659563e-01 4.430887e-01 5.072145e-01 5.552817e-01 5.842523e-01 5.913131e-01 5.741794e-01 5.314746e-01 4.631416e-01 3.708089e-01 2.580145e-01 1.301841e-01 -5.708201e-03 -1.418022e-01 -2.702136e-01 -3.839071e-01 -4.773877e-01 -5.470744e-01 -5.913274e-01 -6.102039e-01 -6.050628e-01 -5.781363e-01 -5.258332e-01 -4.645804e-01 -3.902278e-01 -3.055811e-01 -2.133145e-01 -1.159715e-01 -1.599720e-02 8.421166e-02 1.822472e-01 2.756301e-01 3.617580e-01 4.378740e-01 5.010686e-01 5.483336e-01 5.766861e-01 5.833762e-01 5.661853e-01 5.237966e-01 4.561945e-01 3.650177e-01 2.537708e-01 1.277964e-01 -6.061156e-03 -1.400994e-01 -2.665941e-01 -3.786474e-01 -4.708606e-01 -5.396994e-01 -5.835233e-01 -6.023521e-01 -5.974866e-01 -5.710930e-01 -5.135614e-01 -4.539879e-01 -3.815051e-01 -2.988552e-01 -2.086664e-01 -1.134510e-01 -1.563207e-02 8.241058e-02 1.782859e-01 2.695364e-01 3.535912e-01 4.277392e-01 4.891357e-01 5.348583e-01 5.620300e-01 5.680229e-01 5.507444e-01 5.089907e-01 4.428232e-01 3.538965e-01 2.456480e-01 1.232585e-01 -6.675915e-03 -1.367533e-01 -2.595549e-01 -3.684460e-01 -4.582126e-01 -5.254101e-01 -5.683976e-01 -5.871258e-01 -5.827851e-01 -5.574165e-01 -4.960204e-01 -4.388350e-01 -3.690200e-01 -2.892258e-01 -2.020139e-01 -1.098496e-01 -1.512265e-02 7.981367e-02 1.725946e-01 2.607958e-01 3.418934e-01 4.132440e-01 4.720962e-01 5.156502e-01 5.411795e-01 5.462268e-01 5.288744e-01 4.880731e-01 4.239861e-01 3.382828e-01 2.342990e-01 1.169853e-01 -7.408608e-03 -1.318984e-01 -2.494904e-01 -3.539161e-01 -4.402193e-01 -5.050820e-01 -5.468664e-01 -5.654307e-01 -5.618148e-01 -5.378872e-01 -4.741584e-01 -4.199286e-01 -3.534301e-01 -2.771978e-01 -1.937076e-01 -1.053629e-01 -1.450832e-02 7.653934e-02 1.654520e-01 2.498501e-01 3.272719e-01 3.951608e-01 4.508836e-01 4.917931e-01 5.153478e-01 5.192973e-01 5.019332e-01 4.623870e-01 4.009359e-01 3.192557e-01 2.205497e-01 1.094829e-01 -8.113988e-03 -1.257589e-01 -2.369678e-01 -3.359127e-01 -4.179492e-01 -4.799160e-01 -5.201847e-01 -5.385091e-01 -5.357532e-01 -5.135798e-01 -4.491007e-01 -3.982290e-01 -3.355201e-01 -2.633742e-01 -1.841655e-01 -1.002224e-01 -1.383283e-02 7.273369e-02 1.571959e-01 2.372309e-01 3.104523e-01 3.744068e-01 4.265985e-01 4.645548e-01 4.859419e-01 4.887389e-01 4.714647e-01 4.334421e-01 3.750621e-01 2.979941e-01 2.052817e-01 1.012672e-01 -8.683876e-03 -1.186401e-01 -2.226761e-01 -3.154472e-01 -3.926544e-01 -4.513150e-01 -4.898202e-01 -5.078178e-01 -5.059861e-01 -4.857653e-01 -4.220580e-01 -3.747744e-01 -3.161405e-01 -2.484092e-01 -1.738408e-01 -9.467698e-02 -1.313854e-02 6.856205e-02 1.482006e-01 2.235211e-01 2.922242e-01 3.519719e-01 4.004187e-01 4.352789e-01 4.544382e-01 4.561126e-01 4.390516e-01 4.027664e-01 3.477516e-01 2.756544e-01 1.893394e-01 9.280621e-02 -9.062481e-03 -1.109023e-01 -2.073603e-01 -2.935895e-01 -3.656502e-01 -4.207521e-01 -4.573182e-01 -4.748987e-01 -4.739888e-01 -4.558039e-01 -3.942417e-01 -3.506089e-01 -2.961501e-01 -2.329645e-01 -1.631906e-01 -8.897495e-02 -1.246263e-02 6.419966e-02 1.388532e-01 2.093177e-01 2.733886e-01 3.288510e-01 3.735159e-01 4.052884e-01 4.222731e-01 4.229189e-01 4.061960e-01 3.717899e-01 3.202826e-01 2.532837e-01 1.734685e-01 8.449094e-02 -9.242918e-03 -1.029228e-01 -1.917540e-01 -2.713762e-01 -3.382067e-01 -3.896531e-01 -4.241821e-01 -4.412614e-01 -4.412164e-01 -4.250474e-01 -3.667933e-01 -3.267226e-01 -2.763670e-01 -2.176717e-01 -1.526504e-01 -8.335016e-02 -1.183422e-02 5.982260e-02 1.295333e-01 1.951985e-01 2.547136e-01 3.059889e-01 3.469909e-01 3.758109e-01 3.907631e-01 3.905143e-01 3.742364e-01 3.417683e-01 2.937603e-01 2.317717e-01 1.582869e-01 7.662680e-02 -9.253062e-03 -9.506157e-02 -1.765257e-01 -2.497424e-01 -3.114687e-01 -3.593087e-01 -3.917829e-01 -4.082942e-01 -4.090189e-01 -3.947603e-01 -3.407358e-01 -3.040090e-01 -2.575327e-01 -2.031043e-01 -1.426151e-01 -7.801171e-02 -1.127361e-02 5.559944e-02 1.205952e-01 1.816975e-01 2.369012e-01 2.842390e-01 3.218265e-01 3.479291e-01 3.610534e-01 3.600619e-01 3.443037e-01 3.137463e-01 2.690893e-01 2.118335e-01 1.442795e-01 6.944016e-02 -9.139066e-03 -8.763519e-02 -1.622452e-01 -2.294797e-01 -2.864083e-01 -3.308222e-01 -3.613030e-01 -3.772067e-01 -3.785844e-01 -3.660663e-01 -3.169451e-01 -2.832385e-01 -2.402902e-01 -1.897612e-01 -1.334272e-01 -7.313861e-02 -1.079272e-02 5.168499e-02 1.123563e-01 1.692862e-01 2.205649e-01 2.643396e-01 2.988626e-01 3.225557e-01 3.340956e-01 3.325139e-01 3.173088e-01 2.885518e-01 2.469749e-01 1.940169e-01 1.318095e-01 6.309136e-02 -8.951362e-03 -8.090303e-02 -1.493689e-01 -2.112216e-01 -2.638076e-01 -3.050894e-01 -3.337127e-01 -3.490030e-01 -3.509101e-01 -3.399185e-01 -2.961397e-01 -2.650484e-01 -2.251742e-01 -1.780579e-01 -1.253716e-01 -6.887747e-02 -1.039664e-02 4.821511e-02 1.050888e-01 1.583648e-01 2.062196e-01 2.469031e-01 2.787872e-01 3.004286e-01 3.106476e-01 3.086166e-01 2.939542e-01 2.668124e-01 2.279424e-01 1.787229e-01 1.211372e-01 5.768976e-02 -8.735494e-03 -7.506402e-02 -1.382429e-01 -1.954489e-01 -2.442647e-01 -2.828033e-01 -3.097722e-01 -3.244798e-01 -3.267975e-01 -3.170914e-01 -2.788843e-01 -2.499434e-01 -2.126107e-01 -1.683268e-01 -1.186756e-01 -6.534363e-02 -1.008560e-02 4.530389e-02 9.901661e-02 1.492581e-01 1.942795e-01 2.324168e-01 2.621412e-01 2.821198e-01 2.912883e-01 2.889306e-01 2.747586e-01 2.489838e-01 2.123667e-01 1.662325e-01 1.124412e-01 5.330745e-02 -8.527554e-03 -7.026160e-02 -1.291147e-01 -1.825077e-01 -2.282152e-01 -2.644752e-01 -2.900505e-01 -3.042419e-01 -3.068629e-01 -2.981877e-01 -2.656024e-01 -2.383050e-01 -2.029236e-01 -1.608208e-01 -1.135120e-01 -6.262353e-02 -9.857039e-03 4.304210e-02 9.431461e-02 1.422180e-01 1.850621e-01 2.212503e-01 2.493300e-01 2.680524e-01 2.764400e-01 2.738587e-01 2.600884e-01 2.353817e-01 2.005028e-01 1.567335e-01 1.058389e-01 4.999022e-02 -8.353311e-03 -6.659270e-02 -1.221518e-01 -1.726345e-01 -2.159604e-01 -2.504641e-01 -2.749533e-01 -2.887270e-01 -2.915583e-01 -2.836547e-01 -2.565919e-01 -2.304037e-01 -1.963434e-01 -1.557209e-01 -1.100043e-01 -6.077821e-02 -9.707410e-03 4.149724e-02 9.111074e-02 1.374268e-01 1.787957e-01 2.136668e-01 2.406396e-01 2.585214e-01 2.663927e-01 2.636734e-01 2.501871e-01 2.262127e-01 1.925149e-01 1.503448e-01 1.014034e-01 4.776597e-02 -8.229362e-03 -6.411844e-02 -1.174602e-01 -1.659804e-01 -2.076959e-01 -2.410068e-01 -2.647527e-01 -2.782328e-01 -2.811954e-01 -2.738044e-01 -2.520413e-01 -2.264113e-01 -1.930176e-01 -1.531428e-01 -1.082312e-01 -5.984630e-02 -9.633480e-03 4.071398e-02 8.948827e-02 1.350022e-01 1.756267e-01 2.098343e-01 2.362507e-01 2.537116e-01 2.613262e-01 2.585413e-01 2.452021e-01 2.215998e-01 1.884990e-01 1.471350e-01 9.917641e-02 4.665033e-02 -8.165276e-03 -6.287355e-02 -1.151007e-01 -1.626335e-01 -2.035373e-01 -2.362453e-01 -2.596137e-01 -2.729425e-01 -2.759677e-01 -2.688323e-01 -2.565919e-01 -2.304037e-01 -1.963434e-01 -1.557209e-01 -1.100043e-01 -6.077820e-02 -9.707415e-03 4.149725e-02 9.111073e-02 1.374268e-01 1.787956e-01 2.136668e-01 2.406396e-01 2.585214e-01 2.663927e-01 2.636734e-01 2.501871e-01 2.262127e-01 1.925149e-01 1.503449e-01 1.014034e-01 4.776597e-02 -8.229366e-03 -6.411843e-02 -1.174602e-01 -1.659804e-01 -2.076959e-01 -2.410068e-01 -2.647527e-01 -2.782328e-01 -2.811954e-01 -2.738044e-01 -2.613798e-01 -2.345959e-01 -1.998298e-01 -1.584195e-01 -1.118580e-01 -6.175187e-02 -9.784488e-03 4.231541e-02 9.280526e-02 1.399606e-01 1.821107e-01 2.176810e-01 2.452434e-01 2.635754e-01 2.717262e-01 2.690862e-01 2.554547e-01 2.310957e-01 1.967725e-01 1.537516e-01 1.037679e-01 4.894791e-02 -8.304845e-03 -6.545316e-02 -1.199824e-01 -1.695522e-01 -2.121265e-01 -2.460703e-01 -2.702067e-01 -2.838354e-01 -2.867193e-01 -2.790468e-01 -2.708677e-01 -2.428989e-01 -2.067319e-01 -1.637607e-01 -1.155273e-01 -6.368056e-02 -9.940904e-03 4.392908e-02 9.615300e-02 1.449703e-01 1.886695e-01 2.256284e-01 2.543652e-01 2.735972e-01 2.823113e-01 2.798382e-01 2.659276e-01 2.408122e-01 2.052513e-01 1.605410e-01 1.084834e-01 5.130762e-02 -8.451733e-03 -6.811026e-02 -1.250054e-01 -1.766637e-01 -2.209437e-01 -2.561407e-01 -2.810457e-01 -2.949612e-01 -2.976806e-01 -2.894419e-01 -2.848715e-01 -2.551431e-01 -2.169036e-01 -1.716293e-01 -1.209335e-01 -6.652592e-02 -1.018009e-02 4.629316e-02 1.010696e-01 1.523369e-01 1.983245e-01 2.373416e-01 2.678260e-01 2.884062e-01 2.979748e-01 2.957720e-01 2.814703e-01 2.552527e-01 2.178690e-01 1.706573e-01 1.155184e-01 5.483497e-02 -8.660502e-03 -7.206084e-02 -1.324794e-01 -1.872419e-01 -2.340490e-01 -2.710931e-01 -2.971203e-01 -3.114404e-01 -3.138957e-01 -3.048013e-01 -3.030975e-01 -2.710596e-01 -2.301141e-01 -1.818436e-01 -1.279525e-01 -7.022689e-02 -1.050630e-02 4.933879e-02 1.074250e-01 1.618756e-01 2.108457e-01 2.525560e-01 2.853406e-01 3.077107e-01 3.184334e-01 3.166254e-01 3.018531e-01 2.742275e-01 2.344800e-01 1.839991e-01 1.248137e-01 5.951027e-02 -8.913684e-03 -7.725079e-02 -1.423125e-01 -2.011547e-01 -2.512683e-01 -2.907121e-01 -3.181776e-01 -3.329907e-01 -3.350644e-01 -3.248205e-01 -3.251227e-01 -2.902650e-01 -2.460366e-01 -1.941474e-01 -1.364089e-01 -7.469598e-02 -1.092285e-02 5.297254e-02 1.150401e-01 1.733297e-01 2.259099e-01 2.708969e-01 3.065001e-01 3.310868e-01 3.432679e-01 3.420038e-01 3.267226e-01 2.974377e-01 2.548485e-01 2.003978e-01 1.362682e-01 6.529823e-02 -9.182945e-03 -8.358930e-02 -1.543510e-01 -2.181850e-01 -2.723220e-01 -3.146597e-01 -3.438300e-01 -3.591881e-01 -3.607434e-01 -3.490562e-01 -3.503750e-01 -3.122458e-01 -2.642364e-01 -2.082012e-01 -1.460705e-01 -7.981542e-02 -1.143013e-02 5.707668e-02 1.236846e-01 1.863650e-01 2.430922e-01 2.918657e-01 3.307529e-01 3.579538e-01 3.718944e-01 3.713460e-01 3.555649e-01 3.244382e-01 2.786144e-01 2.195893e-01 1.497193e-01 7.213865e-02 -9.426868e-03 -9.093513e-02 -1.683562e-01 -2.379999e-01 -2.967893e-01 -3.424379e-01 -3.735180e-01 -3.894323e-01 -3.903159e-01 -3.769013e-01 -3.781160e-01 -3.363460e-01 -2.841623e-01 -2.235759e-01 -1.566430e-01 -8.543403e-02 -1.202340e-02 6.151005e-02 1.330762e-01 2.005674e-01 2.618599e-01 3.148296e-01 3.573889e-01 3.875522e-01 4.035354e-01 4.038902e-01 3.876680e-01 3.545983e-01 3.052558e-01 2.411812e-01 1.649182e-01 7.993367e-02 -9.590854e-03 -9.908402e-02 -1.839803e-01 -2.601186e-01 -3.240711e-01 -3.733498e-01 -4.064731e-01 -4.229139e-01 -4.229641e-01 -4.075622e-01 -4.074323e-01 -3.617616e-01 -3.051435e-01 -2.397518e-01 -1.677698e-01 -9.136575e-02 -1.269058e-02 6.611118e-02 1.428840e-01 2.154445e-01 2.815727e-01 3.390182e-01 3.855319e-01 4.189301e-01 4.371994e-01 4.386465e-01 4.220876e-01 3.870638e-01 3.340500e-01 2.646178e-01 1.815024e-01 8.853069e-02 -9.611508e-03 -1.077599e-01 -2.007469e-01 -2.838841e-01 -3.533577e-01 -4.064673e-01 -4.416885e-01 -4.585890e-01 -4.576495e-01 -4.400455e-01 -4.372419e-01 -3.875497e-01 -3.263986e-01 -2.561251e-01 -1.790359e-01 -9.739093e-02 -1.341052e-02 7.070279e-02 1.527357e-01 2.304359e-01 3.014924e-01 3.635324e-01 4.141452e-01 4.509442e-01 4.716758e-01 4.743843e-01 4.576278e-01 4.207314e-01 3.640442e-01 2.891497e-01 1.989692e-01 9.770274e-02 -9.426758e-03 -1.166151e-01 -2.180417e-01 -3.084484e-01 -3.836113e-01 -4.406148e-01 -4.779061e-01 -4.951725e-01 -4.931116e-01 -4.731608e-01 -4.663204e-01 -4.126519e-01 -3.470562e-01 -2.720252e-01 -1.899798e-01 -1.032622e-01 -1.415221e-02 7.509915e-02 1.622304e-01 2.449299e-01 3.208050e-01 3.873690e-01 4.420569e-01 4.822830e-01 5.055541e-01 5.096461e-01 4.928463e-01 4.542455e-01 3.940448e-01 3.138175e-01 2.166557e-01 1.071287e-01 -8.992947e-03 -1.252431e-01 -2.351218e-01 -3.327800e-01 -4.135748e-01 -4.743807e-01 -5.136323e-01 -5.311578e-01 -5.278909e-01 -5.055464e-01 -4.933516e-01 -4.359402e-01 -3.661931e-01 -2.867434e-01 -2.001133e-01 -1.087146e-01 -1.487577e-02 7.911446e-02 1.709568e-01 2.582914e-01 3.386560e-01 4.094631e-01 4.680074e-01 5.115186e-01 5.372760e-01 5.427958e-01 5.260974e-01 4.860322e-01 4.226394e-01 3.374613e-01 2.337362e-01 1.163799e-01 -8.306812e-03 -1.332073e-01 -2.511501e-01 -3.557032e-01 -4.418159e-01 -5.061665e-01 -5.471919e-01 -5.648728e-01 -5.603863e-01 -5.357244e-01 -5.170038e-01 -4.562812e-01 -3.828863e-01 -2.995736e-01 -2.089494e-01 -1.134814e-01 -1.553530e-02 8.257269e-02 1.785157e-01 2.698968e-01 3.541980e-01 4.287480e-01 4.907214e-01 5.371872e-01 5.652226e-01 5.721094e-01 5.556198e-01 5.143784e-01 4.482625e-01 3.587678e-01 2.492476e-01 1.249217e-01 -7.427510e-03 -1.400845e-01 -2.652575e-01 -3.759764e-01 -4.668167e-01 -5.342838e-01 -5.768270e-01 -5.945786e-01 -5.889482e-01 -5.621866e-01 -5.360269e-01 -4.726174e-01 -3.962788e-01 -3.098612e-01 -2.160361e-01 -1.173128e-01 -1.608323e-02 8.531774e-02 1.845447e-01 2.791747e-01 3.666481e-01 4.442291e-01 5.089985e-01 5.578963e-01 5.878358e-01 5.959058e-01 5.796715e-01 5.375634e-01 4.693135e-01 3.763654e-01 2.621536e-01 1.321415e-01 -6.488030e-03 -1.455159e-01 -2.766286e-01 -3.924038e-01 -4.871047e-01 -5.570945e-01 -6.008390e-01 -6.186057e-01 -6.120050e-01 -5.835072e-01 -5.493595e-01 -4.840546e-01 -4.056477e-01 -3.170553e-01 -2.209927e-01 -1.199970e-01 -1.647644e-02 8.722280e-02 1.887442e-01 2.856484e-01 3.753486e-01 4.550655e-01 5.218149e-01 5.724475e-01 6.037610e-01 6.127070e-01 5.967015e-01 5.540325e-01 4.843223e-01 3.889685e-01 2.714549e-01 1.374139e-01 -5.681743e-03 -1.492471e-01 -2.845912e-01 -4.039660e-01 -5.014078e-01 -5.731781e-01 -6.177573e-01 -6.355142e-01 -6.282080e-01 -5.984691e-01 -5.562292e-01 -4.899438e-01 -4.104697e-01 -3.207570e-01 -2.235435e-01 -1.213797e-01 -1.668196e-02 8.819845e-02 1.908999e-01 2.889751e-01 3.798238e-01 4.606449e-01 5.284213e-01 5.799577e-01 6.119923e-01 6.214053e-01 6.055347e-01 5.625931e-01 4.921437e-01 3.955569e-01 2.763385e-01 1.402069e-01 -5.211755e-03 -1.511391e-01 -2.886862e-01 -4.099343e-01 -5.088010e-01 -5.814937e-01 -6.265014e-01 -6.442474e-01 -6.365699e-01 -6.061841e-01 -5.562292e-01 -4.899438e-01 -4.104697e-01 -3.207570e-01 -2.235435e-01 -1.213797e-01 -1.668196e-02 8.819846e-02 1.908999e-01 2.889751e-01 3.798238e-01 4.606449e-01 5.284213e-01 5.799577e-01 6.119923e-01 6.214053e-01 6.055347e-01 5.625931e-01 4.921437e-01 3.955569e-01 2.763385e-01 1.402069e-01 -5.211757e-03 -1.511391e-01 -2.886862e-01 -4.099343e-01 -5.088010e-01 -5.814937e-01 -6.265014e-01 -6.442474e-01 -6.365699e-01 -6.061841e-01 -5.493595e-01 -4.840546e-01 -4.056477e-01 -3.170553e-01 -2.209927e-01 -1.199970e-01 -1.647644e-02 8.722280e-02 1.887442e-01 2.856484e-01 3.753486e-01 4.550655e-01 5.218149e-01 5.724475e-01 6.037610e-01 6.127070e-01 5.967015e-01 5.540325e-01 4.843223e-01 3.889685e-01 2.714549e-01 1.374139e-01 -5.681740e-03 -1.492471e-01 -2.845912e-01 -4.039660e-01 -5.014078e-01 -5.731781e-01 -6.177573e-01 -6.355142e-01 -6.282080e-01 -5.984691e-01 -5.360269e-01 -4.726174e-01 -3.962788e-01 -3.098612e-01 -2.160361e-01 -1.173128e-01 -1.608323e-02 8.531775e-02 1.845447e-01 2.791747e-01 3.666481e-01 4.442291e-01 5.089985e-01 5.578963e-01 5.878358e-01 5.959058e-01 5.796715e-01 5.375634e-01 4.693135e-01 3.763654e-01 2.621536e-01 1.321415e-01 -6.488033e-03 -1.455159e-01 -2.766286e-01 -3.924038e-01 -4.871047e-01 -5.570945e-01 -6.008390e-01 -6.186057e-01 -6.120050e-01 -5.835072e-01 -5.170038e-01 -4.562812e-01 -3.828863e-01 -2.995736e-01 -2.089494e-01 -1.134814e-01 -1.553530e-02 8.257269e-02 1.785157e-01 2.698968e-01 3.541980e-01 4.287479e-01 4.907214e-01 5.371872e-01 5.652226e-01 5.721094e-01 5.556198e-01 5.143784e-01 4.482625e-01 3.587678e-01 2.492476e-01 1.249217e-01 -7.427507e-03 -1.400845e-01 -2.652575e-01 -3.759764e-01 -4.668167e-01 -5.342839e-01 -5.768270e-01 -5.945786e-01 -5.889482e-01 -5.621866e-01 -4.933516e-01 -4.359402e-01 -3.661931e-01 -2.867434e-01 -2.001133e-01 -1.087146e-01 -1.487578e-02 7.911447e-02 1.709568e-01 2.582914e-01 3.386560e-01 4.094631e-01 4.680074e-01 5.115186e-01 5.372760e-01 5.427958e-01 5.260974e-01 4.860322e-01 4.226394e-01 3.374613e-01 2.337362e-01 1.163799e-01 -8.306815e-03 -1.332072e-01 -2.511501e-01 -3.557032e-01 -4.418159e-01 -5.061665e-01 -5.471919e-01 -5.648728e-01 -5.603863e-01 -5.357244e-01 -4.663204e-01 -4.126519e-01 -3.470562e-01 -2.720252e-01 -1.899798e-01 -1.032622e-01 -1.415221e-02 7.509914e-02 1.622304e-01 2.449299e-01 3.208050e-01 3.873690e-01 4.420569e-01 4.822830e-01 5.055541e-01 5.096461e-01 4.928463e-01 4.542455e-01 3.940448e-01 3.138175e-01 2.166557e-01 1.071287e-01 -8.992944e-03 -1.252431e-01 -2.351218e-01 -3.327800e-01 -4.135748e-01 -4.743807e-01 -5.136323e-01 -5.311578e-01 -5.278909e-01 -5.055464e-01 -4.372419e-01 -3.875497e-01 -3.263986e-01 -2.561251e-01 -1.790359e-01 -9.739093e-02 -1.341052e-02 7.070280e-02 1.527357e-01 2.304359e-01 3.014924e-01 3.635324e-01 4.141452e-01 4.509442e-01 4.716758e-01 4.743843e-01 4.576278e-01 4.207314e-01 3.640442e-01 2.891497e-01 1.989692e-01 9.770275e-02 -9.426761e-03 -1.166151e-01 -2.180417e-01 -3.084484e-01 -3.836113e-01 -4.406148e-01 -4.779061e-01 -4.951725e-01 -4.931116e-01 -4.731608e-01 -4.074322e-01 -3.617616e-01 -3.051435e-01 -2.397518e-01 -1.677698e-01 -9.136575e-02 -1.269058e-02 6.611117e-02 1.428840e-01 2.154445e-01 2.815727e-01 3.390181e-01 3.855319e-01 4.189301e-01 4.371994e-01 4.386465e-01 4.220876e-01 3.870638e-01 3.340500e-01 2.646178e-01 1.815024e-01 8.853069e-02 -9.611505e-03 -1.077599e-01 -2.007469e-01 -2.838841e-01 -3.533577e-01 -4.064673e-01 -4.416885e-01 -4.585890e-01 -4.576495e-01 -4.400455e-01 -3.781160e-01 -3.363460e-01 -2.841623e-01 -2.235759e-01 -1.566430e-01 -8.543402e-02 -1.202340e-02 6.151005e-02 1.330762e-01 2.005674e-01 2.618599e-01 3.148296e-01 3.573889e-01 3.875522e-01 4.035354e-01 4.038902e-01 3.876680e-01 3.545983e-01 3.052558e-01 2.411813e-01 1.649182e-01 7.993367e-02 -9.590858e-03 -9.908401e-02 -1.839803e-01 -2.601186e-01 -3.240712e-01 -3.733498e-01 -4.064731e-01 -4.229138e-01 -4.229641e-01 -4.075622e-01 -3.503750e-01 -3.122458e-01 -2.642364e-01 -2.082012e-01 -1.460704e-01 -7.981543e-02 -1.143013e-02 5.707668e-02 1.236846e-01 1.863650e-01 2.430922e-01 2.918657e-01 3.307529e-01 3.579538e-01 3.718944e-01 3.713460e-01 3.555649e-01 3.244382e-01 2.786144e-01 2.195893e-01 1.497193e-01 7.213865e-02 -9.426864e-03 -9.093513e-02 -1.683562e-01 -2.379999e-01 -2.967893e-01 -3.424379e-01 -3.735180e-01 -3.894323e-01 -3.903159e-01 -3.769013e-01 -3.251227e-01 -2.902650e-01 -2.460366e-01 -1.941474e-01 -1.364089e-01 -7.469597e-02 -1.092285e-02 5.297255e-02 1.150401e-01 1.733297e-01 2.259099e-01 2.708969e-01 3.065001e-01 3.310868e-01 3.432679e-01 3.420038e-01 3.267225e-01 2.974377e-01 2.548484e-01 2.003978e-01 1.362682e-01 6.529823e-02 -9.182949e-03 -8.358929e-02 -1.543510e-01 -2.181849e-01 -2.723220e-01 -3.146597e-01 -3.438300e-01 -3.591881e-01 -3.607434e-01 -3.490562e-01 -3.030975e-01 -2.710596e-01 -2.301140e-01 -1.818436e-01 -1.279525e-01 -7.022689e-02 -1.050629e-02 4.933878e-02 1.074250e-01 1.618756e-01 2.108457e-01 2.525560e-01 2.853406e-01 3.077107e-01 3.184334e-01 3.166254e-01 3.018531e-01 2.742275e-01 2.344800e-01 1.839991e-01 1.248137e-01 5.951027e-02 -8.913680e-03 -7.725080e-02 -1.423125e-01 -2.011547e-01 -2.512683e-01 -2.907121e-01 -3.181776e-01 -3.329907e-01 -3.350644e-01 -3.248205e-01 -2.848715e-01 -2.551431e-01 -2.169036e-01 -1.716293e-01 -1.209335e-01 -6.652591e-02 -1.018009e-02 4.629316e-02 1.010696e-01 1.523369e-01 1.983245e-01 2.373416e-01 2.678260e-01 2.884062e-01 2.979748e-01 2.957720e-01 2.814703e-01 2.552527e-01 2.178690e-01 1.706573e-01 1.155184e-01 5.483497e-02 -8.660506e-03 -7.206083e-02 -1.324794e-01 -1.872419e-01 -2.340490e-01 -2.710931e-01 -2.971203e-01 -3.114404e-01 -3.138957e-01 -3.048013e-01 -2.708677e-01 -2.428989e-01 -2.067319e-01 -1.637607e-01 -1.155273e-01 -6.368057e-02 -9.940899e-03 4.392908e-02 9.615300e-02 1.449703e-01 1.886695e-01 2.256284e-01 2.543652e-01 2.735972e-01 2.823113e-01 2.798382e-01 2.659276e-01 2.408122e-01 2.052513e-01 1.605410e-01 1.084834e-01 5.130762e-02 -8.451729e-03 -6.811027e-02 -1.250054e-01 -1.766637e-01 -2.209437e-01 -2.561407e-01 -2.810457e-01 -2.949612e-01 -2.976806e-01 -2.894419e-01 -2.613798e-01 -2.345959e-01 -1.998298e-01 -1.584195e-01 -1.118580e-01 -6.175186e-02 -9.784493e-03 4.231542e-02 9.280525e-02 1.399606e-01 1.821107e-01 2.176810e-01 2.452434e-01 2.635754e-01 2.717261e-01 2.690862e-01 2.554547e-01 2.310957e-01 1.967725e-01 1.537516e-01 1.037679e-01 4.894792e-02 -8.304849e-03 -6.545315e-02 -1.199824e-01 -1.695522e-01 -2.121265e-01 -2.460703e-01 -2.702067e-01 -2.838354e-01 -2.867193e-01 -2.790468e-01 -2.565919e-01 -2.304037e-01 -1.963434e-01 -1.557209e-01 -1.100043e-01 -6.077821e-02 -9.707410e-03 4.149724e-02 9.111074e-02 1.374268e-01 1.787957e-01 2.136668e-01 2.406396e-01 2.585214e-01 2.663927e-01 2.636734e-01 2.501871e-01 2.262127e-01 1.925149e-01 1.503448e-01 1.014034e-01 4.776597e-02 -8.229362e-03 -6.411844e-02 -1.174602e-01 -1.659804e-01 -2.076959e-01 -2.410068e-01 -2.647527e-01 -2.782328e-01 -2.811954e-01 -2.738044e-01 -2.656024e-01 -2.383050e-01 -2.029236e-01 -1.608208e-01 -1.135120e-01 -6.262353e-02 -9.857035e-03 4.304209e-02 9.431461e-02 1.422180e-01 1.850621e-01 2.212503e-01 2.493300e-01 2.680524e-01 2.764400e-01 2.738587e-01 2.600884e-01 2.353817e-01 2.005028e-01 1.567335e-01 1.058389e-01 4.999022e-02 -8.353307e-03 -6.659271e-02 -1.221518e-01 -1.726345e-01 -2.159604e-01 -2.504641e-01 -2.749533e-01 -2.887270e-01 -2.915583e-01 -2.836547e-01 -2.708677e-01 -2.428989e-01 -2.067319e-01 -1.637607e-01 -1.155273e-01 -6.368056e-02 -9.940904e-03 4.392908e-02 9.615300e-02 1.449703e-01 1.886695e-01 2.256284e-01 2.543652e-01 2.735972e-01 2.823113e-01 2.798382e-01 2.659276e-01 2.408122e-01 2.052513e-01 1.605410e-01 1.084834e-01 5.130762e-02 -8.451733e-03 -6.811026e-02 -1.250054e-01 -1.766637e-01 -2.209437e-01 -2.561407e-01 -2.810457e-01 -2.949612e-01 -2.976806e-01 -2.894419e-01 -2.813166e-01 -2.520090e-01 -2.142802e-01 -1.695859e-01 -1.195205e-01 -6.577645e-02 -1.011115e-02 4.567985e-02 9.978780e-02 1.504165e-01 1.958128e-01 2.343053e-01 2.643532e-01 2.846067e-01 2.939809e-01 2.917355e-01 2.775584e-01 2.516402e-01 2.147284e-01 1.681472e-01 1.137707e-01 5.394456e-02 -8.644780e-03 -7.114022e-02 -1.307046e-01 -1.847080e-01 -2.308867e-01 -2.674579e-01 -2.931806e-01 -3.073667e-01 -3.098515e-01 -3.009362e-01 -2.967760e-01 -2.654722e-01 -2.254252e-01 -1.781820e-01 -1.254132e-01 -6.887343e-02 -1.037247e-02 4.824778e-02 1.051328e-01 1.584359e-01 2.063446e-01 2.471152e-01 2.791200e-01 3.009098e-01 3.112908e-01 3.094142e-01 2.948717e-01 2.677866e-01 2.288839e-01 1.795255e-01 1.216921e-01 5.790376e-02 -8.922729e-03 -7.566660e-02 -1.392243e-01 -1.967278e-01 -2.457289e-01 -2.843292e-01 -3.112436e-01 -3.258031e-01 -3.279105e-01 -3.179653e-01 -3.169626e-01 -2.830242e-01 -2.399373e-01 -1.893670e-01 -1.330805e-01 -7.291042e-02 -1.073051e-02 5.156093e-02 1.120537e-01 1.688393e-01 2.200307e-01 2.637922e-01 2.983836e-01 3.222241e-01 3.339744e-01 3.326375e-01 3.176716e-01 2.891016e-01 2.476146e-01 1.946152e-01 1.322212e-01 6.318480e-02 -9.265807e-03 -8.165131e-02 -1.505048e-01 -2.126348e-01 -