<VTKFile type="RectilinearGrid">
<RectilinearGrid WholeExtent="0 32 0 32 0 32" GhostLevel="0">
<Piece Extent="0 32 0 32 0 32">
<CellData Scalars="p phase" Vectors="vel">
<DataArray type="Float32" Name="p">
-2.492524e-01 -2.234882e-01 -1.899439e-01 -1.498971e-01 -1.047927e-01 -5.620104e-02 -5.780390e-03 4.475892e-02 9.368961e-02 1.393041e-01 1.799551e-01 2.141013e-01 2.403609e-01 2.575703e-01 2.648488e-01 2.616629e-01 2.478857e-01 2.238424e-01 1.903338e-01 1.486290e-01 1.004237e-01 4.776091e-02 -7.079014e-03 -6.171009e-02 -1.137804e-01 -1.611049e-01 -2.017781e-01 -2.342585e-01 -2.574194e-01 -2.705687e-01 -2.734412e-01 -2.661714e-01 -2.538204e-01 -2.275001e-01 -1.932889e-01 -1.524910e-01 -1.065755e-01 -5.713460e-02 -5.846443e-03 4.555994e-02 9.533860e-02 1.417623e-01 1.831620e-01 2.179725e-01 2.447849e-01 2.624075e-01 2.699310e-01 2.667960e-01 2.528555e-01 2.284239e-01 1.943044e-01 1.517837e-01 1.025913e-01 4.881856e-02 -7.194179e-03 -6.299534e-02 -1.161679e-01 -1.644682e-01 -2.059442e-01 -2.390224e-01 -2.625598e-01 -2.758628e-01 -2.786770e-01 -2.711567e-01 -2.628616e-01 -2.354376e-01 -1.999052e-01 -1.576211e-01 -1.101019e-01 -5.898271e-02 -5.980326e-03 4.713978e-02 9.859533e-02 1.466206e-01 1.895042e-01 2.256331e-01 2.535457e-01 2.719935e-01 2.800102e-01 2.769838e-01 2.627265e-01 2.375304e-01 2.022022e-01 1.580630e-01 1.069093e-01 5.092949e-02 -7.416312e-03 -6.554487e-02 -1.209086e-01 -1.711469e-01 -2.142149e-01 -2.484756e-01 -2.727548e-01 -2.863569e-01 -2.890499e-01 -2.810283e-01 -2.761793e-01 -2.471226e-01 -2.096412e-01 -1.651687e-01 -1.152913e-01 -6.170601e-02 -6.185134e-03 4.945360e-02 1.033758e-01 1.537605e-01 1.988345e-01 2.369150e-01 2.664624e-01 2.861438e-01 2.949068e-01 2.920601e-01 2.773522e-01 2.510397e-01 2.139321e-01 1.674002e-01 1.133394e-01 5.408338e-02 -7.727761e-03 -6.931267e-02 -1.279275e-01 -1.810368e-01 -2.264569e-01 -2.624585e-01 -2.878225e-01 -3.018528e-01 -3.043533e-01 -2.955799e-01 -2.934632e-01 -2.622754e-01 -2.222594e-01 -1.749486e-01 -1.220179e-01 -6.524239e-02 -6.464376e-03 5.243325e-02 1.095510e-01 1.629983e-01 2.109234e-01 2.515540e-01 2.832487e-01 3.045633e-01 3.143311e-01 3.117528e-01 2.964895e-01 2.687462e-01 2.293317e-01 1.796791e-01 1.218134e-01 5.826050e-02 -8.099469e-03 -7.422048e-02 -1.370969e-01 -1.939610e-01 -2.424472e-01 -2.807065e-01 -3.074647e-01 -3.220295e-01 -3.242557e-01 -3.144837e-01 -3.142735e-01 -2.805023e-01 -2.374276e-01 -1.867019e-01 -1.301052e-01 -6.950386e-02 -6.820650e-03 5.598672e-02 1.169441e-01 1.740800e-01 2.254512e-01 2.691784e-01 3.034974e-01 3.268278e-01 3.378604e-01 3.356594e-01 3.197726e-01 2.903347e-01 2.481473e-01 1.947151e-01 1.322201e-01 6.342567e-02 -8.489221e-03 -8.014833e-02 -1.482200e-01 -2.096492e-01 -2.618479e-01 -3.028239e-01 -3.312413e-01 -3.464187e-01 -3.482795e-01 -3.372714e-01 -3.380268e-01 -3.012844e-01 -2.547095e-01 -2.000897e-01 -1.393221e-01 -7.437334e-02 -7.253842e-03 5.999827e-02 1.253283e-01 1.866771e-01 2.419999e-01 2.892974e-01 3.266647e-01 3.523630e-01 3.649142e-01 3.632182e-01 3.466824e-01 3.153502e-01 2.700058e-01 2.122307e-01 1.443877e-01 6.951915e-02 -8.841662e-03 -8.692561e-02 -1.610143e-01 -2.277142e-01 -2.841791e-01 -3.282552e-01 -3.585421e-01 -3.743795e-01 -3.757779e-01 -3.633162e-01 -3.639853e-01 -3.239704e-01 -2.735602e-01 -2.146891e-01 -1.493792e-01 -7.970244e-02 -7.759353e-03 6.432966e-02 1.344276e-01 2.003847e-01 2.600492e-01 3.112929e-01 3.520573e-01 3.804267e-01 3.947314e-01 3.936806e-01 3.765152e-01 3.431648e-01 2.943828e-01 2.318282e-01 1.580628e-01 7.644364e-02 -9.091827e-03 -9.432524e-02 -1.750972e-01 -2.476319e-01 -3.087959e-01 -3.562610e-01 -3.885639e-01 -4.050776e-01 -4.059186e-01 -3.918187e-01 -3.912577e-01 -3.477776e-01 -2.933277e-01 -2.299952e-01 -1.599304e-01 -8.531088e-02 -8.326269e-03 6.882293e-02 1.439195e-01 2.147241e-01 2.789775e-01 3.344188e-01 3.788279e-01 4.100995e-01 4.263550e-01 4.260910e-01 4.083580e-01 3.729497e-01 3.205736e-01 2.529622e-01 1.728873e-01 8.404808e-02 -9.173891e-03 -1.020650e-01 -1.899814e-01 -2.687316e-01 -3.348758e-01 -3.859057e-01 -4.203000e-01 -4.374779e-01 -4.376790e-01 -4.218059e-01 -4.188142e-01 -3.718069e-01 -3.132653e-01 -2.454303e-01 -1.705784e-01 -9.098904e-02 -8.936113e-03 7.330519e-02 1.534430e-01 2.291535e-01 2.980736e-01 3.578114e-01 4.059836e-01 4.402902e-01 4.586331e-01 4.592817e-01 4.410777e-01 4.036604e-01 3.476749e-01 2.749194e-01 1.883789e-01 9.211001e-02 -9.035554e-03 -1.098185e-01 -2.050830e-01 -2.902037e-01 -3.614271e-01 -4.160665e-01 -4.525512e-01 -4.703574e-01 -4.698605e-01 -4.521459e-01 -4.455197e-01 -3.950711e-01 -3.325558e-01 -2.603626e-01 -1.808873e-01 -9.650393e-02 -9.562465e-03 7.759535e-02 1.626113e-01 2.430851e-01 3.165579e-01 3.805138e-01 4.324122e-01 4.697610e-01 4.902419e-01 4.918921e-01 4.733352e-01 4.340431e-01 3.745853e-01 2.968139e-01 2.039209e-01 1.003213e-01 -8.656238e-03 -1.172374e-01 -2.197483e-01 -3.111298e-01 -3.873221e-01 -4.454709e-01 -4.839648e-01 -5.023448e-01 -5.011274e-01 -4.815845e-01 -4.701869e-01 -4.165412e-01 -3.503488e-01 -2.741347e-01 -1.904024e-01 -1.016094e-01 -1.017174e-02 8.151245e-02 1.710287e-01 2.559112e-01 3.336167e-01 4.015178e-01 4.569289e-01 4.971781e-01 5.197377e-01 5.224196e-01 5.036320e-01 4.626761e-01 4.000371e-01 3.176079e-01 2.187716e-01 1.082847e-01 -8.063772e-03 -1.239815e-01 -2.332958e-01 -3.305365e-01 -4.113604e-01 -4.727635e-01 -5.131034e-01 -5.319877e-01 -5.300709e-01 -5.088048e-01 -4.916453e-01 -4.352048e-01 -3.658090e-01 -2.861006e-01 -1.986752e-01 -1.060603e-01 -1.072566e-02 8.488525e-02 1.783129e-01 2.670384e-01 3.484482e-01 4.198201e-01 4.783435e-01 5.211883e-01 5.456396e-01 5.493053e-01 5.303949e-01 4.880483e-01 4.226654e-01 3.361666e-01 2.321005e-01 1.155292e-01 -7.341317e-03 -1.297484e-01 -2.450685e-01 -3.474658e-01 -4.323520e-01 -4.965976e-01 -5.385383e-01 -5.578442e-01 -5.552951e-01 -5.325051e-01 -5.088204e-01 -4.501343e-01 -3.781714e-01 -2.956688e-01 -2.052943e-01 -1.096294e-01 -1.118490e-02 8.756194e-02 1.841183e-01 2.759250e-01 3.603148e-01 4.344915e-01 4.955444e-01 5.405161e-01 5.665389e-01 5.710518e-01 5.520977e-01 5.086783e-01 4.411167e-01 3.513495e-01 2.430569e-01 1.215511e-01 -6.616789e-03 -1.342932e-01 -2.544817e-01 -3.610476e-01 -4.492072e-01 -5.157353e-01 -5.589536e-01 -5.785854e-01 -5.755144e-01 -5.514882e-01 -5.208149e-01 -4.605558e-01 -3.867987e-01 -3.023459e-01 -2.099154e-01 -1.121254e-01 -1.151395e-02 8.941929e-02 1.881595e-01 2.821210e-01 3.686000e-01 4.447494e-01 5.075894e-01 5.540730e-01 5.812242e-01 5.863611e-01 5.674062e-01 5.232600e-01 4.541870e-01 3.621316e-01 2.508654e-01 1.258777e-01 -6.033013e-03 -1.374325e-01 -2.610566e-01 -3.705577e-01 -4.610149e-01 -5.291391e-01 -5.732454e-01 -5.930967e-01 -5.896515e-01 -5.647528e-01 -5.269818e-01 -4.659125e-01 -3.912324e-01 -3.057774e-01 -2.122909e-01 -1.134098e-01 -1.168578e-02 9.037043e-02 1.902332e-01 2.853034e-01 3.728592e-01 4.500274e-01 5.137928e-01 5.610623e-01 5.888035e-01 5.942719e-01 5.753264e-01 5.308139e-01 4.609672e-01 3.677338e-01 2.549313e-01 1.281413e-01 -5.708725e-03 -1.390378e-01 -2.644418e-01 -3.754612e-01 -4.671036e-01 -5.360478e-01 -5.806074e-01 -6.005676e-01 -5.969261e-01 -5.715753e-01 -5.269818e-01 -4.659125e-01 -3.912324e-01 -3.057774e-01 -2.122909e-01 -1.134098e-01 -1.168578e-02 9.037043e-02 1.902332e-01 2.853034e-01 3.728592e-01 4.500274e-01 5.137928e-01 5.610623e-01 5.888035e-01 5.942719e-01 5.753264e-01 5.308139e-01 4.609672e-01 3.677338e-01 2.549313e-01 1.281413e-01 -5.708724e-03 -1.390378e-01 -2.644418e-01 -3.754612e-01 -4.671036e-01 -5.360478e-01 -5.806074e-01 -6.005676e-01 -5.969261e-01 -5.715753e-01 -5.208149e-01 -4.605558e-01 -3.867987e-01 -3.023459e-01 -2.099154e-01 -1.121254e-01 -1.151396e-02 8.941929e-02 1.881595e-01 2.821210e-01 3.686000e-01 4.447494e-01 5.075894e-01 5.540730e-01 5.812242e-01 5.863611e-01 5.674062e-01 5.232600e-01 4.541870e-01 3.621316e-01 2.508654e-01 1.258777e-01 -6.033014e-03 -1.374325e-01 -2.610566e-01 -3.705577e-01 -4.610149e-01 -5.291391e-01 -5.732454e-01 -5.930967e-01 -5.896515e-01 -5.647528e-01 -5.088204e-01 -4.501343e-01 -3.781714e-01 -2.956688e-01 -2.052943e-01 -1.096294e-01 -1.118490e-02 8.756194e-02 1.841183e-01 2.759250e-01 3.603148e-01 4.344915e-01 4.955444e-01 5.405161e-01 5.665390e-01 5.710518e-01 5.520977e-01 5.086783e-01 4.411167e-01 3.513495e-01 2.430569e-01 1.215511e-01 -6.616789e-03 -1.342932e-01 -2.544817e-01 -3.610476e-01 -4.492072e-01 -5.157353e-01 -5.589536e-01 -5.785854e-01 -5.755144e-01 -5.514882e-01 -4.916453e-01 -4.352048e-01 -3.658090e-01 -2.861006e-01 -1.986752e-01 -1.060603e-01 -1.072566e-02 8.488525e-02 1.783129e-01 2.670384e-01 3.484482e-01 4.198201e-01 4.783435e-01 5.211883e-01 5.456396e-01 5.493053e-01 5.303949e-01 4.880483e-01 4.226654e-01 3.361666e-01 2.321005e-01 1.155292e-01 -7.341318e-03 -1.297484e-01 -2.450685e-01 -3.474658e-01 -4.323520e-01 -4.965976e-01 -5.385383e-01 -5.578442e-01 -5.552951e-01 -5.325051e-01 -4.701869e-01 -4.165412e-01 -3.503488e-01 -2.741347e-01 -1.904024e-01 -1.016094e-01 -1.017174e-02 8.151245e-02 1.710287e-01 2.559112e-01 3.336167e-01 4.015178e-01 4.569289e-01 4.971781e-01 5.197377e-01 5.224196e-01 5.036320e-01 4.626761e-01 4.000371e-01 3.176079e-01 2.187716e-01 1.082847e-01 -8.063771e-03 -1.239815e-01 -2.332958e-01 -3.305365e-01 -4.113604e-01 -4.727635e-01 -5.131034e-01 -5.319877e-01 -5.300709e-01 -5.088048e-01 -4.455197e-01 -3.950711e-01 -3.325558e-01 -2.603626e-01 -1.808873e-01 -9.650393e-02 -9.562466e-03 7.759535e-02 1.626113e-01 2.430851e-01 3.165579e-01 3.805138e-01 4.324122e-01 4.697610e-01 4.902419e-01 4.918921e-01 4.733352e-01 4.340431e-01 3.745853e-01 2.968139e-01 2.039209e-01 1.003213e-01 -8.656238e-03 -1.172374e-01 -2.197483e-01 -3.111298e-01 -3.873221e-01 -4.454709e-01 -4.839648e-01 -5.023448e-01 -5.011274e-01 -4.815845e-01 -4.188142e-01 -3.718069e-01 -3.132653e-01 -2.454303e-01 -1.705784e-01 -9.098904e-02 -8.936112e-03 7.330519e-02 1.534430e-01 2.291535e-01 2.980736e-01 3.578114e-01 4.059836e-01 4.402902e-01 4.586331e-01 4.592817e-01 4.410777e-01 4.036604e-01 3.476749e-01 2.749194e-01 1.883789e-01 9.211001e-02 -9.035553e-03 -1.098185e-01 -2.050830e-01 -2.902037e-01 -3.614271e-01 -4.160665e-01 -4.525512e-01 -4.703575e-01 -4.698605e-01 -4.521459e-01 -3.912577e-01 -3.477776e-01 -2.933277e-01 -2.299952e-01 -1.599304e-01 -8.531088e-02 -8.326270e-03 6.882293e-02 1.439195e-01 2.147241e-01 2.789775e-01 3.344188e-01 3.788279e-01 4.100995e-01 4.263550e-01 4.260910e-01 4.083580e-01 3.729498e-01 3.205736e-01 2.529622e-01 1.728873e-01 8.404808e-02 -9.173891e-03 -1.020650e-01 -1.899814e-01 -2.687316e-01 -3.348758e-01 -3.859057e-01 -4.203000e-01 -4.374779e-01 -4.376790e-01 -4.218059e-01 -3.639853e-01 -3.239704e-01 -2.735602e-01 -2.146891e-01 -1.493792e-01 -7.970244e-02 -7.759352e-03 6.432966e-02 1.344276e-01 2.003847e-01 2.600492e-01 3.112929e-01 3.520573e-01 3.804266e-01 3.947314e-01 3.936806e-01 3.765152e-01 3.431648e-01 2.943828e-01 2.318282e-01 1.580628e-01 7.644364e-02 -9.091826e-03 -9.432524e-02 -1.750972e-01 -2.476319e-01 -3.087959e-01 -3.562610e-01 -3.885639e-01 -4.050776e-01 -4.059186e-01 -3.918187e-01 -3.380268e-01 -3.012844e-01 -2.547095e-01 -2.000897e-01 -1.393221e-01 -7.437334e-02 -7.253843e-03 5.999828e-02 1.253283e-01 1.866771e-01 2.419999e-01 2.892974e-01 3.266647e-01 3.523630e-01 3.649142e-01 3.632182e-01 3.466824e-01 3.153502e-01 2.700058e-01 2.122307e-01 1.443877e-01 6.951915e-02 -8.841663e-03 -8.692561e-02 -1.610143e-01 -2.277142e-01 -2.841791e-01 -3.282552e-01 -3.585421e-01 -3.743795e-01 -3.757779e-01 -3.633162e-01 -3.142735e-01 -2.805023e-01 -2.374276e-01 -1.867019e-01 -1.301052e-01 -6.950386e-02 -6.820649e-03 5.598672e-02 1.169441e-01 1.740800e-01 2.254512e-01 2.691784e-01 3.034974e-01 3.268278e-01 3.378604e-01 3.356594e-01 3.197726e-01 2.903347e-01 2.481473e-01 1.947151e-01 1.322201e-01 6.342567e-02 -8.489220e-03 -8.014833e-02 -1.482200e-01 -2.096492e-01 -2.618479e-01 -3.028239e-01 -3.312413e-01 -3.464187e-01 -3.482795e-01 -3.372714e-01 -2.934632e-01 -2.622754e-01 -2.222594e-01 -1.749486e-01 -1.220179e-01 -6.524239e-02 -6.464377e-03 5.243325e-02 1.095510e-01 1.629983e-01 2.109234e-01 2.515540e-01 2.832487e-01 3.045633e-01 3.143311e-01 3.117528e-01 2.964895e-01 2.687462e-01 2.293317e-01 1.796791e-01 1.218134e-01 5.826050e-02 -8.099470e-03 -7.422048e-02 -1.370969e-01 -1.939610e-01 -2.424472e-01 -2.807065e-01 -3.074647e-01 -3.220295e-01 -3.242557e-01 -3.144837e-01 -2.761793e-01 -2.471226e-01 -2.096412e-01 -1.651687e-01 -1.152913e-01 -6.170601e-02 -6.185133e-03 4.945360e-02 1.033758e-01 1.537605e-01 1.988345e-01 2.369150e-01 2.664624e-01 2.861438e-01 2.949068e-01 2.920601e-01 2.773522e-01 2.510397e-01 2.139321e-01 1.674002e-01 1.133394e-01 5.408338e-02 -7.727760e-03 -6.931268e-02 -1.279275e-01 -1.810368e-01 -2.264569e-01 -2.624585e-01 -2.878225e-01 -3.018528e-01 -3.043533e-01 -2.955799e-01 -2.628616e-01 -2.354376e-01 -1.999052e-01 -1.576211e-01 -1.101019e-01 -5.898271e-02 -5.980327e-03 4.713978e-02 9.859532e-02 1.466206e-01 1.895042e-01 2.256331e-01 2.535457e-01 2.719935e-01 2.800102e-01 2.769838e-01 2.627265e-01 2.375304e-01 2.022022e-01 1.580630e-01 1.069093e-01 5.092949e-02 -7.416313e-03 -6.554487e-02 -1.209086e-01 -1.711469e-01 -2.142149e-01 -2.484756e-01 -2.727548e-01 -2.863569e-01 -2.890499e-01 -2.810283e-01 -2.538204e-01 -2.275001e-01 -1.932889e-01 -1.524910e-01 -1.065755e-01 -5.713460e-02 -5.846442e-03 4.555994e-02 9.533860e-02 1.417623e-01 1.831620e-01 2.179725e-01 2.447849e-01 2.624075e-01 2.699310e-01 2.667960e-01 2.528555e-01 2.284239e-01 1.943044e-01 1.517837e-01 1.025913e-01 4.881856e-02 -7.194178e-03 -6.299534e-02 -1.161679e-01 -1.644682e-01 -2.059442e-01 -2.390224e-01 -2.625598e-01 -2.758628e-01 -2.786770e-01 -2.711567e-01 -2.492524e-01 -2.234882e-01 -1.899439e-01 -1.498971e-01 -1.047927e-01 -5.620103e-02 -5.780391e-03 4.475892e-02 9.368961e-02 1.393041e-01 1.799551e-01 2.141013e-01 2.403609e-01 2.575703e-01 2.648488e-01 2.616629e-01 2.478857e-01 2.238424e-01 1.903338e-01 1.486290e-01 1.004237e-01 4.776091e-02 -7.079015e-03 -6.171009e-02 -1.137804e-01 -1.611049e-01 -2.017781e-01 -2.342585e-01 -2.574194e-01 -2.705687e-01 -2.734412e-01 -2.661714e-01 -2.538204e-01 -2.275001e-01 -1.932889e-01 -1.524910e-01 -1.065755e-01 -5.713460e-02 -5.846443e-03 4.555994e-02 9.533860e-02 1.417623e-01 1.831620e-01 2.179725e-01 2.447849e-01 2.624075e-01 2.699310e-01 2.667960e-01 2.528555e-01 2.284239e-01 1.943044e-01 1.517837e-01 1.025913e-01 4.881856e-02 -7.194179e-03 -6.299534e-02 -1.161679e-01 -1.644682e-01 -2.059442e-01 -2.390224e-01 -2.625598e-01 -2.758628e-01 -2.786770e-01 -2.711567e-01 -2.586327e-01 -2.317186e-01 -1.968003e-01 -1.552102e-01 -1.084426e-01 -5.811215e-02 -5.916782e-03 4.639579e-02 9.706111e-02 1.443322e-01 1.865181e-01 2.220287e-01 2.494272e-01 2.674917e-01 2.752819e-01 2.722100e-01 2.581062e-01 2.332719e-01 1.985112e-01 1.551284e-01 1.048881e-01 4.993408e-02 -7.328971e-03 -6.437796e-02 -1.187248e-01 -1.680623e-01 -2.103878e-01 -2.440939e-01 -2.680210e-01 -2.814754e-01 -2.842159e-01 -2.764194e-01 -2.681654e-01 -2.400710e-01 -2.037504e-01 -1.605915e-01 -1.121381e-01 -6.004849e-02 -6.059504e-03 4.804498e-02 1.004645e-01 1.494138e-01 1.931587e-01 2.300602e-01 2.586261e-01 2.775742e-01 2.859024e-01 2.829650e-01 2.685456e-01 2.429187e-01 2.068886e-01 1.617940e-01 1.094697e-01 5.216329e-02 -7.590646e-03 -6.712542e-02 -1.238102e-01 -1.752103e-01 -2.192222e-01 -2.541712e-01 -2.788661e-01 -2.926139e-01 -2.952008e-01 -2.868499e-01 -2.822266e-01 -2.523822e-01 -2.139890e-01 -1.685168e-01 -1.175816e-01 -6.290454e-02 -6.278233e-03 5.046187e-02 1.054639e-01 1.568875e-01 2.029363e-01 2.418994e-01 2.722030e-01 2.924748e-01 3.016199e-01 2.989041e-01 2.840390e-01 2.572554e-01 2.193554e-01 1.717264e-01 1.163072e-01 5.550103e-02 -7.961698e-03 -7.119736e-02 -1.313596e-01 -1.858219e-01 -2.323302e-01 -2.691110e-01 -2.949282e-01 -3.090929e-01 -3.114352e-01 -3.022495e-01 -3.005102e-01 -2.683741e-01 -2.272791e-01 -1.788004e-01 -1.246466e-01 -6.661816e-02 -6.577182e-03 5.357682e-02 1.119281e-01 1.665674e-01 2.156195e-01 2.572813e-01 2.898726e-01 3.119026e-01 3.221517e-01 3.197663e-01 3.043574e-01 2.760931e-01 2.357669e-01 1.848263e-01 1.253458e-01 5.993541e-02 -8.412114e-03 -7.652170e-02 -1.412577e-01 -1.997376e-01 -2.495083e-01 -2.886684e-01 -3.159269e-01 -3.306061e-01 -3.325988e-01 -3.222976e-01 -3.225763e-01 -2.876510e-01 -2.432850e-01 -1.911804e-01 -1.331546e-01 -7.110039e-02 -6.959638e-03 5.729537e-02 1.196763e-01 1.781947e-01 2.308832e-01 2.758294e-01 3.112247e-01 3.354327e-01 3.470788e-01 3.451569e-01 3.291479e-01 2.991334e-01 2.558881e-01 2.009274e-01 1.364899e-01 6.544169e-02 -8.896250e-03 -8.298253e-02 -1.533185e-01 -2.167022e-01 -2.704358e-01 -3.124645e-01 -3.414367e-01 -3.566962e-01 -3.582206e-01 -3.465290e-01 -3.478325e-01 -3.096843e-01 -2.615614e-01 -2.053099e-01 -1.428687e-01 -7.623162e-02 -7.426095e-03 6.149811e-02 1.284754e-01 1.914317e-01 2.482988e-01 2.970417e-01 3.357049e-01 3.624826e-01 3.758158e-01 3.745142e-01 3.578964e-01 3.259314e-01 2.793603e-01 2.197687e-01 1.495833e-01 7.197236e-02 -9.351539e-03 -9.040755e-02 -1.672624e-01 -2.363345e-01 -2.946399e-01 -3.399497e-01 -3.708505e-01 -3.867217e-01 -3.876500e-01 -3.743097e-01 -3.755182e-01 -3.338014e-01 -2.815451e-01 -2.207520e-01 -1.534902e-01 -8.185858e-02 -7.972105e-03 6.604156e-02 1.380390e-01 2.058591e-01 2.673279e-01 3.202796e-01 3.625980e-01 3.922885e-01 4.075820e-01 4.070740e-01 3.898891e-01 3.558553e-01 3.056612e-01 2.409598e-01 1.643835e-01 7.944232e-02 -9.700978e-03 -9.855837e-02 -1.826958e-01 -2.580985e-01 -3.214618e-01 -3.703682e-01 -4.033462e-01 -4.198271e-01 -4.200316e-01 -4.048171e-01 -4.047003e-01 -3.591837e-01 -3.025545e-01 -2.369791e-01 -1.646574e-01 -8.779315e-02 -8.586317e-03 7.076094e-02 1.480309e-01 2.209777e-01 2.873222e-01 3.447643e-01 3.910198e-01 4.238913e-01 4.413802e-01 4.418423e-01 4.241791e-01 3.880495e-01 3.340679e-01 2.639460e-01 1.805321e-01 8.770898e-02 -9.862264e-03 -1.071285e-01 -1.990995e-01 -2.812848e-01 -3.500343e-01 -4.027356e-01 -4.378661e-01 -4.549265e-01 -4.542935e-01 -4.370315e-01 -4.342847e-01 -3.848782e-01 -3.238002e-01 -2.533815e-01 -1.759515e-01 -9.381441e-02 -9.248952e-03 7.547490e-02 1.580720e-01 2.362177e-01 3.075327e-01 3.695855e-01 4.199225e-01 4.561380e-01 4.759922e-01 4.775832e-01 4.595671e-01 4.214089e-01 3.636268e-01 2.879779e-01 1.975274e-01 9.654882e-02 -9.764744e-03 -1.157537e-01 -2.158329e-01 -3.050104e-01 -3.792806e-01 -4.358383e-01 -4.731194e-01 -4.907083e-01 -4.891548e-01 -4.697474e-01 -4.630493e-01 -4.098266e-01 -3.444090e-01 -2.692859e-01 -1.869092e-01 -9.967469e-02 -9.931271e-03 7.999251e-02 1.677531e-01 2.509568e-01 3.271329e-01 3.937264e-01 4.481208e-01 4.877054e-01 5.099984e-01 5.128335e-01 4.946092e-01 4.545791e-01 3.931464e-01 3.120974e-01 2.147051e-01 1.056358e-01 -9.372904e-03 -1.240366e-01 -2.321609e-01 -3.282486e-01 -4.079465e-01 -4.682683e-01 -5.076184e-01 -5.256732e-01 -5.231634e-01 -5.016081e-01 -4.897002e-01 -4.329135e-01 -3.634635e-01 -2.839859e-01 -1.970429e-01 -1.051104e-01 -1.059649e-02 8.412212e-02 1.766543e-01 2.645481e-01 3.452539e-01 4.161064e-01 4.743400e-01 5.171526e-01 5.418314e-01 5.459538e-01 5.276618e-01 4.859932e-01 4.212239e-01 3.351524e-01 2.312408e-01 1.145304e-01 -8.710263e-03 -1.315846e-01 -2.473045e-01 -3.498910e-01 -4.346710e-01 -4.984984e-01 -5.397545e-01 -5.582072e-01 -5.547644e-01 -5.311696e-01 -5.129477e-01 -4.530311e-01 -3.800550e-01 -2.967824e-01 -2.058690e-01 -1.098572e-01 -1.120238e-02 8.768158e-02 1.843668e-01 2.763557e-01 3.610337e-01 4.356430e-01 4.972897e-01 5.430035e-01 5.698658e-01 5.752209e-01 5.569739e-01 5.139571e-01 4.463184e-01 3.558537e-01 2.461858e-01 1.226927e-01 -7.872537e-03 -1.380497e-01 -2.605076e-01 -3.688365e-01 -4.580906e-01 -5.249933e-01 -5.679087e-01 -5.866873e-01 -5.823976e-01 -5.569875e-01 -5.315979e-01 -4.691562e-01 -3.933456e-01 -3.070307e-01 -2.129408e-01 -1.136689e-01 -1.170547e-02 9.050879e-02 1.905199e-01 2.857967e-01 3.736758e-01 4.513273e-01 5.157558e-01 5.638559e-01 5.925406e-01 5.989615e-01 5.808242e-01 5.367843e-01 4.668745e-01 3.728790e-01 2.585455e-01 1.295274e-01 -7.017200e-03 -1.431546e-01 -2.710988e-01 -3.840856e-01 -4.769553e-01 -5.463354e-01 -5.905787e-01 -6.096036e-01 -6.046116e-01 -5.777207e-01 -5.446455e-01 -4.804296e-01 -4.026330e-01 -3.141910e-01 -2.178833e-01 -1.163373e-01 -1.206633e-02 9.247184e-02 1.948066e-01 2.923850e-01 3.825111e-01 4.623060e-01 5.287041e-01 5.785050e-01 6.085029e-01 6.157114e-01 5.976915e-01 5.529686e-01 4.814880e-01 3.850196e-01 2.673955e-01 1.344643e-01 -6.323940e-03 -1.466930e-01 -2.785269e-01 -3.948057e-01 -4.902184e-01 -5.613314e-01 -6.064949e-01 -6.256784e-01 -6.201794e-01 -5.922376e-01 -5.513615e-01 -4.862298e-01 -4.074098e-01 -3.178734e-01 -2.204257e-01 -1.177113e-01 -1.225489e-02 9.347750e-02 1.970072e-01 2.957708e-01 3.870559e-01 4.679588e-01 5.353781e-01 5.860647e-01 6.167510e-01 6.243786e-01 6.064326e-01 5.613694e-01 4.890864e-01 3.913443e-01 2.720175e-01 1.370552e-01 -5.939491e-03 -1.485110e-01 -2.823703e-01 -4.003602e-01 -4.970865e-01 -5.690863e-01 -6.147145e-01 -6.339706e-01 -6.282031e-01 -5.997143e-01 -5.513615e-01 -4.862298e-01 -4.074098e-01 -3.178734e-01 -2.204257e-01 -1.177113e-01 -1.225490e-02 9.347750e-02 1.970072e-01 2.957708e-01 3.870559e-01 4.679588e-01 5.353781e-01 5.860647e-01 6.167510e-01 6.243786e-01 6.064326e-01 5.613694e-01 4.890864e-01 3.913443e-01 2.720175e-01 1.370552e-01 -5.939492e-03 -1.485110e-01 -2.823703e-01 -4.003602e-01 -4.970865e-01 -5.690863e-01 -6.147145e-01 -6.339706e-01 -6.282031e-01 -5.997143e-01 -5.446455e-01 -4.804296e-01 -4.026330e-01 -3.141910e-01 -2.178833e-01 -1.163373e-01 -1.206633e-02 9.247184e-02 1.948066e-01 2.923850e-01 3.825111e-01 4.623060e-01 5.287041e-01 5.785050e-01 6.085029e-01 6.157114e-01 5.976915e-01 5.529686e-01 4.814880e-01 3.850196e-01 2.673955e-01 1.344643e-01 -6.323940e-03 -1.466930e-01 -2.785269e-01 -3.948057e-01 -4.902184e-01 -5.613314e-01 -6.064949e-01 -6.256784e-01 -6.201794e-01 -5.922376e-01 -5.315979e-01 -4.691562e-01 -3.933456e-01 -3.070307e-01 -2.129408e-01 -1.136689e-01 -1.170547e-02 9.050880e-02 1.905199e-01 2.857967e-01 3.736758e-01 4.513273e-01 5.157558e-01 5.638559e-01 5.925406e-01 5.989615e-01 5.808242e-01 5.367843e-01 4.668745e-01 3.728790e-01 2.585455e-01 1.295274e-01 -7.017201e-03 -1.431546e-01 -2.710988e-01 -3.840856e-01 -4.769553e-01 -5.463354e-01 -5.905787e-01 -6.096036e-01 -6.046116e-01 -5.777207e-01 -5.129477e-01 -4.530311e-01 -3.800550e-01 -2.967824e-01 -2.058690e-01 -1.098572e-01 -1.120238e-02 8.768157e-02 1.843668e-01 2.763557e-01 3.610337e-01 4.356430e-01 4.972897e-01 5.430035e-01 5.698658e-01 5.752209e-01 5.569739e-01 5.139571e-01 4.463184e-01 3.558537e-01 2.461858e-01 1.226927e-01 -7.872537e-03 -1.380497e-01 -2.605076e-01 -3.688365e-01 -4.580906e-01 -5.249933e-01 -5.679087e-01 -5.866873e-01 -5.823976e-01 -5.569875e-01 -4.897002e-01 -4.329135e-01 -3.634635e-01 -2.839859e-01 -1.970429e-01 -1.051104e-01 -1.059649e-02 8.412212e-02 1.766543e-01 2.645481e-01 3.452539e-01 4.161064e-01 4.743400e-01 5.171526e-01 5.418314e-01 5.459538e-01 5.276618e-01 4.859932e-01 4.212239e-01 3.351524e-01 2.312408e-01 1.145304e-01 -8.710264e-03 -1.315846e-01 -2.473045e-01 -3.498910e-01 -4.346710e-01 -4.984984e-01 -5.397545e-01 -5.582072e-01 -5.547644e-01 -5.311696e-01 -4.630493e-01 -4.098266e-01 -3.444090e-01 -2.692859e-01 -1.869092e-01 -9.967469e-02 -9.931270e-03 7.999251e-02 1.677531e-01 2.509568e-01 3.271330e-01 3.937264e-01 4.481208e-01 4.877054e-01 5.099984e-01 5.128335e-01 4.946092e-01 4.545791e-01 3.931464e-01 3.120974e-01 2.147051e-01 1.056358e-01 -9.372904e-03 -1.240366e-01 -2.321609e-01 -3.282486e-01 -4.079465e-01 -4.682683e-01 -5.076184e-01 -5.256732e-01 -5.231634e-01 -5.016081e-01 -4.342847e-01 -3.848782e-01 -3.238002e-01 -2.533815e-01 -1.759515e-01 -9.381441e-02 -9.248953e-03 7.547490e-02 1.580720e-01 2.362177e-01 3.075327e-01 3.695855e-01 4.199225e-01 4.561380e-01 4.759922e-01 4.775832e-01 4.595671e-01 4.214090e-01 3.636268e-01 2.879779e-01 1.975274e-01 9.654882e-02 -9.764745e-03 -1.157537e-01 -2.158329e-01 -3.050104e-01 -3.792806e-01 -4.358383e-01 -4.731194e-01 -4.907083e-01 -4.891548e-01 -4.697474e-01 -4.047003e-01 -3.591837e-01 -3.025545e-01 -2.369791e-01 -1.646574e-01 -8.779315e-02 -8.586316e-03 7.076094e-02 1.480309e-01 2.209777e-01 2.873222e-01 3.447643e-01 3.910198e-01 4.238913e-01 4.413802e-01 4.418423e-01 4.241791e-01 3.880495e-01 3.340679e-01 2.639460e-01 1.805321e-01 8.770898e-02 -9.862263e-03 -1.071285e-01 -1.990995e-01 -2.812848e-01 -3.500343e-01 -4.027356e-01 -4.378661e-01 -4.549265e-01 -4.542935e-01 -4.370315e-01 -3.755182e-01 -3.338014e-01 -2.815451e-01 -2.207520e-01 -1.534902e-01 -8.185858e-02 -7.972106e-03 6.604156e-02 1.380390e-01 2.058591e-01 2.673279e-01 3.202796e-01 3.625980e-01 3.922885e-01 4.075820e-01 4.070740e-01 3.898891e-01 3.558553e-01 3.056612e-01 2.409598e-01 1.643835e-01 7.944232e-02 -9.700978e-03 -9.855837e-02 -1.826958e-01 -2.580985e-01 -3.214618e-01 -3.703682e-01 -4.033462e-01 -4.198271e-01 -4.200316e-01 -4.048171e-01 -3.478325e-01 -3.096843e-01 -2.615614e-01 -2.053099e-01 -1.428687e-01 -7.623163e-02 -7.426094e-03 6.149811e-02 1.284754e-01 1.914317e-01 2.482988e-01 2.970417e-01 3.357049e-01 3.624826e-01 3.758158e-01 3.745142e-01 3.578964e-01 3.259314e-01 2.793603e-01 2.197687e-01 1.495833e-01 7.197236e-02 -9.351538e-03 -9.040755e-02 -1.672624e-01 -2.363345e-01 -2.946399e-01 -3.399497e-01 -3.708505e-01 -3.867217e-01 -3.876500e-01 -3.743097e-01 -3.225763e-01 -2.876510e-01 -2.432850e-01 -1.911804e-01 -1.331546e-01 -7.110039e-02 -6.959639e-03 5.729537e-02 1.196763e-01 1.781947e-01 2.308832e-01 2.758294e-01 3.112247e-01 3.354327e-01 3.470788e-01 3.451569e-01 3.291479e-01 2.991334e-01 2.558881e-01 2.009274e-01 1.364899e-01 6.544169e-02 -8.896251e-03 -8.298252e-02 -1.533185e-01 -2.167022e-01 -2.704358e-01 -3.124645e-01 -3.414367e-01 -3.566962e-01 -3.582206e-01 -3.465290e-01 -3.005102e-01 -2.683741e-01 -2.272791e-01 -1.788004e-01 -1.246466e-01 -6.661816e-02 -6.577181e-03 5.357682e-02 1.119281e-01 1.665674e-01 2.156195e-01 2.572813e-01 2.898726e-01 3.119026e-01 3.221517e-01 3.197663e-01 3.043574e-01 2.760931e-01 2.357669e-01 1.848263e-01 1.253458e-01 5.993541e-02 -8.412113e-03 -7.652170e-02 -1.412577e-01 -1.997376e-01 -2.495083e-01 -2.886684e-01 -3.159269e-01 -3.306061e-01 -3.325988e-01 -3.222976e-01 -2.822266e-01 -2.523822e-01 -2.139890e-01 -1.685168e-01 -1.175816e-01 -6.290454e-02 -6.278234e-03 5.046187e-02 1.054639e-01 1.568875e-01 2.029363e-01 2.418994e-01 2.722030e-01 2.924748e-01 3.016199e-01 2.989041e-01 2.840390e-01 2.572554e-01 2.193554e-01 1.717264e-01 1.163072e-01 5.550103e-02 -7.961699e-03 -7.119736e-02 -1.313596e-01 -1.858219e-01 -2.323302e-01 -2.691110e-01 -2.949282e-01 -3.090929e-01 -3.114352e-01 -3.022495e-01 -2.681654e-01 -2.400710e-01 -2.037504e-01 -1.605915e-01 -1.121381e-01 -6.004849e-02 -6.059503e-03 4.804498e-02 1.004645e-01 1.494138e-01 1.931587e-01 2.300602e-01 2.586261e-01 2.775742e-01 2.859024e-01 2.829650e-01 2.685456e-01 2.429187e-01 2.068886e-01 1.617940e-01 1.094698e-01 5.216329e-02 -7.590645e-03 -6.712542e-02 -1.238102e-01 -1.752103e-01 -2.192222e-01 -2.541712e-01 -2.788661e-01 -2.926139e-01 -2.952008e-01 -2.868499e-01 -2.586327e-01 -2.317186e-01 -1.968003e-01 -1.552102e-01 -1.084426e-01 -5.811215e-02 -5.916783e-03 4.639579e-02 9.706111e-02 1.443322e-01 1.865181e-01 2.220287e-01 2.494272e-01 2.674917e-01 2.752819e-01 2.722100e-01 2.581062e-01 2.332719e-01 1.985112e-01 1.551284e-01 1.048881e-01 4.993408e-02 -7.328972e-03 -6.437796e-02 -1.187248e-01 -1.680623e-01 -2.103878e-01 -2.440939e-01 -2.680210e-01 -2.814754e-01 -2.842159e-01 -2.764194e-01 -2.538204e-01 -2.275001e-01 -1.932889e-01 -1.524910e-01 -1.065755e-01 -5.713460e-02 -5.846442e-03 4.555994e-02 9.533860e-02 1.417623e-01 1.831620e-01 2.179725e-01 2.447849e-01 2.624075e-01 2.699310e-01 2.667960e-01 2.528555e-01 2.284239e-01 1.943044e-01 1.517837e-01 1.025913e-01 4.881856e-02 -7.194178e-03 -6.299534e-02 -1.161679e-01 -1.644682e-01 -2.059442e-01 -2.390224e-01 -2.625598e-01 -2.758628e-01 -2.786770e-01 -2.711567e-01 -2.628616e-01 -2.354376e-01 -1.999052e-01 -1.576211e-01 -1.101019e-01 -5.898271e-02 -5.980326e-03 4.713978e-02 9.859533e-02 1.466206e-01 1.895042e-01 2.256331e-01 2.535457e-01 2.719935e-01 2.800102e-01 2.769838e-01 2.627265e-01 2.375304e-01 2.022022e-01 1.580630e-01 1.069093e-01 5.092949e-02 -7.416312e-03 -6.554487e-02 -1.209086e-01 -1.711469e-01 -2.142149e-01 -2.484756e-01 -2.727548e-01 -2.863569e-01 -2.890499e-01 -2.810283e-01 -2.681654e-01 -2.400710e-01 -2.037504e-01 -1.605915e-01 -1.121381e-01 -6.004849e-02 -6.059504e-03 4.804498e-02 1.004645e-01 1.494138e-01 1.931587e-01 2.300602e-01 2.586261e-01 2.775742e-01 2.859024e-01 2.829650e-01 2.685456e-01 2.429187e-01 2.068886e-01 1.617940e-01 1.094697e-01 5.216329e-02 -7.590646e-03 -6.712542e-02 -1.238102e-01 -1.752103e-01 -2.192222e-01 -2.541712e-01 -2.788661e-01 -2.926139e-01 -2.952008e-01 -2.868499e-01 -2.786880e-01 -2.492579e-01 -2.113709e-01 -1.664767e-01 -1.161726e-01 -6.216191e-02 -6.220529e-03 4.983220e-02 1.041607e-01 1.549415e-01 2.003967e-01 2.388354e-01 2.687051e-01 2.886560e-01 2.976148e-01 2.948665e-01 2.801366e-01 2.536623e-01 2.162419e-01 1.692472e-01 1.145897e-01 5.463481e-02 -7.932106e-03 -7.027609e-02 -1.295983e-01 -1.833143e-01 -2.292041e-01 -2.655173e-01 -2.910306e-01 -3.050578e-01 -3.074232e-01 -2.984085e-01 -2.942493e-01 -2.628300e-01 -2.226202e-01 -1.751606e-01 -1.221260e-01 -6.528475e-02 -6.468211e-03 5.245421e-02 1.095972e-01 1.630830e-01 2.110706e-01 2.517933e-01 2.836099e-01 3.050694e-01 3.149908e-01 3.125533e-01 2.973916e-01 2.696829e-01 2.302118e-01 1.803966e-01 1.222619e-01 5.835066e-02 -8.423527e-03 -7.496939e-02 -1.382323e-01 -1.954011e-01 -2.440801e-01 -2.824078e-01 -3.091159e-01 -3.235330e-01 -3.255440e-01 -3.155225e-01 -3.145541e-01 -2.805150e-01 -2.372631e-01 -1.864574e-01 -1.298715e-01 -6.935516e-02 -6.808300e-03 5.583845e-02 1.166389e-01 1.736482e-01 2.249457e-01 2.686683e-01 3.030589e-01 3.265332e-01 3.377653e-01 3.357901e-01 3.201155e-01 2.908311e-01 2.486954e-01 1.951821e-01 1.324628e-01 6.331727e-02 -9.032686e-03 -8.114793e-02 -1.496268e-01 -2.113518e-01 -