<VTKFile type="RectilinearGrid">
<RectilinearGrid WholeExtent="0 32 0 32 0 32" GhostLevel="0">
<Piece Extent="0 32 0 32 0 32">
<CellData Scalars="p phase" Vectors="vel">
<DataArray type="Float32" Name="p">
-2.486634e-01 -2.211468e-01 -1.855517e-01 -1.432188e-01 -9.566286e-02 -4.453071e-02 8.437306e-03 6.144438e-02 1.126742e-01 1.603303e-01 2.026796e-01 2.381022e-01 2.651493e-01 2.826066e-01 2.895643e-01 2.854851e-01 2.702673e-01 2.442910e-01 2.084403e-01 1.640916e-01 1.130650e-01 5.753641e-02 -8.184261e-05 -5.728206e-02 -1.116080e-01 -1.607925e-01 -2.028723e-01 -2.362717e-01 -2.598514e-01 -2.729244e-01 -2.752455e-01 -2.669806e-01 -2.534359e-01 -2.253296e-01 -1.890300e-01 -1.459053e-01 -9.749523e-02 -4.546954e-02 8.410670e-03 6.232880e-02 1.144487e-01 1.629528e-01 2.060848e-01 2.421991e-01 2.698184e-01 2.876985e-01 2.948996e-01 2.908579e-01 2.754510e-01 2.490492e-01 2.125402e-01 1.673206e-01 1.152471e-01 5.854776e-02 -3.018685e-04 -5.872523e-02 -1.141983e-01 -1.643937e-01 -2.073005e-01 -2.413108e-01 -2.652695e-01 -2.784893e-01 -2.807368e-01 -2.721988e-01 -2.628869e-01 -2.336099e-01 -1.959142e-01 -1.512222e-01 -1.011232e-01 -4.733116e-02 8.352017e-03 6.407125e-02 1.179517e-01 1.681345e-01 2.128181e-01 2.503058e-01 2.790639e-01 2.977887e-01 3.054803e-01 3.015205e-01 2.857458e-01 2.585051e-01 2.206926e-01 1.737442e-01 1.195897e-01 6.056125e-02 -7.388371e-04 -6.159587e-02 -1.193500e-01 -1.715533e-01 -2.160998e-01 -2.513182e-01 -2.760232e-01 -2.895274e-01 -2.916224e-01 -2.825376e-01 -2.768220e-01 -2.458116e-01 -2.060551e-01 -1.590543e-01 -1.064704e-01 -5.008184e-02 8.251295e-03 6.661863e-02 1.230898e-01 1.757466e-01 2.227214e-01 2.622429e-01 2.926942e-01 3.126822e-01 3.211169e-01 3.172977e-01 3.009965e-01 2.725282e-01 2.327943e-01 1.832873e-01 1.260456e-01 6.355707e-02 -1.385180e-03 -6.585845e-02 -1.269986e-01 -1.821769e-01 -2.291462e-01 -2.661422e-01 -2.919368e-01 -3.058453e-01 -3.076990e-01 -2.977931e-01 -2.949324e-01 -2.616568e-01 -2.192178e-01 -1.692200e-01 -1.134165e-01 -5.366703e-02 8.095239e-03 6.989090e-02 1.297201e-01 1.855901e-01 2.355489e-01 2.777293e-01 3.104059e-01 3.320675e-01 3.415041e-01 3.379028e-01 3.209463e-01 2.908999e-01 2.486702e-01 1.958212e-01 1.345336e-01 6.750176e-02 -2.226337e-03 -7.144980e-02 -1.370315e-01 -1.961027e-01 -2.462301e-01 -2.855297e-01 -3.127211e-01 -3.271284e-01 -3.286398e-01 -3.176402e-01 -3.167790e-01 -2.807522e-01 -2.350711e-01 -1.814636e-01 -1.217908e-01 -5.800722e-02 7.869587e-03 7.378119e-02 1.376480e-01 1.973907e-01 2.509586e-01 2.963700e-01 3.317681e-01 3.554972e-01 3.661969e-01 3.629123e-01 3.452103e-01 3.132874e-01 2.680498e-01 2.111449e-01 1.449261e-01 7.234326e-02 -3.237855e-03 -7.826853e-02 -1.492710e-01 -2.130786e-01 -2.670303e-01 -3.090990e-01 -3.379467e-01 -3.529157e-01 -3.539707e-01 -3.416123e-01 -3.417744e-01 -3.025750e-01 -2.531766e-01 -1.954462e-01 -1.313657e-01 -6.299335e-02 7.561948e-03 7.815678e-02 1.466256e-01 2.107950e-01 2.685048e-01 3.176442e-01 3.562062e-01 3.823661e-01 3.945852e-01 3.917367e-01 3.732435e-01 3.392123e-01 2.905392e-01 2.289618e-01 1.570330e-01 7.800371e-02 -4.382972e-03 -8.616343e-02 -1.634543e-01 -2.327367e-01 -2.910845e-01 -3.363087e-01 -3.670130e-01 -3.825709e-01 -3.830459e-01 -3.690802e-01 -3.691695e-01 -3.264628e-01 -2.729806e-01 -2.107403e-01 -1.418521e-01 -6.848272e-02 7.165159e-03 8.286151e-02 1.563531e-01 2.253688e-01 2.876334e-01 3.408973e-01 3.829882e-01 4.118927e-01 4.258694e-01 4.235914e-01 4.043099e-01 3.680181e-01 3.155892e-01 2.488532e-01 1.705831e-01 8.436982e-02 -5.612054e-03 -9.492294e-02 -1.792148e-01 -2.545684e-01 -3.177607e-01 -3.664281e-01 -3.991202e-01 -4.152577e-01 -4.150261e-01 -3.992344e-01 -3.980486e-01 -3.516111e-01 -2.938131e-01 -2.268284e-01 -1.528980e-01 -7.429668e-02 6.680650e-03 8.771998e-02 1.664827e-01 2.406014e-01 3.076848e-01 3.653397e-01 4.112202e-01 4.431101e-01 4.590457e-01 4.574765e-01 4.374563e-01 3.988422e-01 3.424682e-01 2.702536e-01 1.852044e-01 9.128164e-02 -6.864829e-03 -1.042687e-01 -1.960681e-01 -2.779049e-01 -3.462356e-01 -3.985162e-01 -4.332502e-01 -4.499239e-01 -4.488670e-01 -4.310778e-01 -4.273396e-01 -3.770832e-01 -3.148965e-01 -2.431099e-01 -1.640920e-01 -8.022128e-02 6.121241e-03 9.254370e-02 1.766282e-01 2.559165e-01 3.279049e-01 3.900586e-01 4.398556e-01 4.748706e-01 4.929059e-01 4.921712e-01 4.715029e-01 4.306011e-01 3.702444e-01 2.924328e-01 2.004090e-01 9.852148e-02 -8.076021e-03 -1.138556e-01 -2.134081e-01 -3.019108e-01 -3.754882e-01 -4.314165e-01 -4.681649e-01 -4.853034e-01 -4.833246e-01 -4.634333e-01 -4.558422e-01 -4.018359e-01 -3.353681e-01 -2.589184e-01 -1.749755e-01 -8.601237e-02 5.512583e-03 9.713885e-02 1.863785e-01 2.706911e-01 3.474693e-01 4.140437e-01 4.677223e-01 5.058729e-01 5.260626e-01 5.262546e-01 5.050573e-01 4.619996e-01 3.977891e-01 3.144943e-01 2.155879e-01 1.058067e-01 -9.183536e-03 -1.232808e-01 -2.305166e-01 -3.255970e-01 -4.043152e-01 -4.637766e-01 -5.024300e-01 -5.199432e-01 -5.169849e-01 -4.949740e-01 -4.822788e-01 -4.247647e-01 -3.543166e-01 -2.735503e-01 -1.850615e-01 -9.140577e-02 4.892592e-03 1.013155e-01 1.953159e-01 2.842832e-01 3.655184e-01 4.362311e-01 4.935721e-01 5.347152e-01 5.570026e-01 5.581580e-01 5.365633e-01 4.915716e-01 4.238095e-01 3.353984e-01 2.300235e-01 1.127914e-01 -1.013722e-02 -1.321023e-01 -2.465919e-01 -3.478570e-01 -4.313761e-01 -4.941000e-01 -5.344703e-01 -5.522615e-01 -5.483208e-01 -5.242783e-01 -5.053673e-01 -4.447662e-01 -3.708344e-01 -2.863048e-01 -1.938629e-01 -9.613285e-02 4.308378e-03 1.048970e-01 2.030391e-01 2.960671e-01 3.812061e-01 4.555625e-01 5.161509e-01 5.599743e-01 5.841734e-01 5.862542e-01 5.643888e-01 5.177630e-01 4.469194e-01 3.540172e-01 2.429254e-01 1.190818e-01 -1.090505e-02 -1.398666e-01 -2.607956e-01 -3.675304e-01 -4.552691e-01 -5.208305e-01 -5.626600e-01 -5.806379e-01 -5.757800e-01 -5.499106e-01 -5.239106e-01 -4.608143e-01 -3.840794e-01 -2.965317e-01 -2.009266e-01 -9.994024e-02 3.810855e-03 1.077293e-01 2.091869e-01 3.054733e-01 3.937549e-01 4.710575e-01 5.342872e-01 5.803086e-01 6.060978e-01 6.089800e-01 5.869504e-01 5.390513e-01 4.657482e-01 3.692242e-01 2.534947e-01 1.242686e-01 -1.147420e-02 -1.461422e-01 -2.723158e-01 -3.834917e-01 -4.746380e-01 -5.424700e-01 -5.854431e-01 -6.035321e-01 -5.978966e-01 -5.705239e-01 -5.368947e-01 -4.720426e-01 -3.933424e-01 -3.036836e-01 -2.058698e-01 -1.026118e-01 3.447709e-03 1.096895e-01 2.134628e-01 3.120289e-01 4.025149e-01 4.818910e-01 5.469876e-01 5.945724e-01 6.215043e-01 6.249791e-01 6.028639e-01 5.540948e-01 4.790784e-01 3.800107e-01 2.610088e-01 1.279743e-01 -1.184633e-02 -1.505576e-01 -2.804436e-01 -3.947555e-01 -4.882979e-01 -5.577151e-01 -6.014734e-01 -6.196188e-01 -6.134166e-01 -5.849718e-01 -5.435813e-01 -4.778223e-01 -3.981090e-01 -3.073639e-01 -2.084145e-01 -1.039893e-01 3.255996e-03 1.106916e-01 2.156556e-01 3.153952e-01 4.070177e-01 4.874649e-01 5.535287e-01 6.019264e-01 6.294563e-01 6.332466e-01 6.110970e-01 5.618870e-01 4.859914e-01 3.856112e-01 2.649158e-01 1.299070e-01 -1.202929e-02 -1.528385e-01 -2.846494e-01 -4.005851e-01 -4.953650e-01 -5.655969e-01 -6.097544e-01 -6.279217e-01 -6.214204e-01 -5.924171e-01 -5.435813e-01 -4.778223e-01 -3.981090e-01 -3.073639e-01 -2.084145e-01 -1.039893e-01 3.255992e-03 1.106916e-01 2.156556e-01 3.153952e-01 4.070177e-01 4.874649e-01 5.535287e-01 6.019264e-01 6.294563e-01 6.332466e-01 6.110970e-01 5.618870e-01 4.859914e-01 3.856112e-01 2.649158e-01 1.299070e-01 -1.202929e-02 -1.528385e-01 -2.846494e-01 -4.005851e-01 -4.953650e-01 -5.655969e-01 -6.097544e-01 -6.279217e-01 -6.214204e-01 -5.924171e-01 -5.368947e-01 -4.720426e-01 -3.933424e-01 -3.036836e-01 -2.058698e-01 -1.026118e-01 3.447708e-03 1.096895e-01 2.134628e-01 3.120289e-01 4.025149e-01 4.818910e-01 5.469876e-01 5.945724e-01 6.215043e-01 6.249791e-01 6.028639e-01 5.540948e-01 4.790784e-01 3.800107e-01 2.610088e-01 1.279743e-01 -1.184634e-02 -1.505576e-01 -2.804436e-01 -3.947555e-01 -4.882979e-01 -5.577151e-01 -6.014734e-01 -6.196188e-01 -6.134166e-01 -5.849718e-01 -5.239106e-01 -4.608143e-01 -3.840794e-01 -2.965317e-01 -2.009266e-01 -9.994024e-02 3.810853e-03 1.077293e-01 2.091869e-01 3.054733e-01 3.937549e-01 4.710575e-01 5.342872e-01 5.803086e-01 6.060978e-01 6.089800e-01 5.869504e-01 5.390513e-01 4.657482e-01 3.692242e-01 2.534947e-01 1.242686e-01 -1.147420e-02 -1.461422e-01 -2.723158e-01 -3.834917e-01 -4.746380e-01 -5.424700e-01 -5.854431e-01 -6.035321e-01 -5.978966e-01 -5.705239e-01 -5.053673e-01 -4.447662e-01 -3.708344e-01 -2.863048e-01 -1.938629e-01 -9.613285e-02 4.308378e-03 1.048970e-01 2.030391e-01 2.960671e-01 3.812061e-01 4.555625e-01 5.161509e-01 5.599743e-01 5.841734e-01 5.862542e-01 5.643888e-01 5.177630e-01 4.469194e-01 3.540172e-01 2.429254e-01 1.190818e-01 -1.090505e-02 -1.398666e-01 -2.607956e-01 -3.675304e-01 -4.552691e-01 -5.208305e-01 -5.626600e-01 -5.806379e-01 -5.757800e-01 -5.499106e-01 -4.822788e-01 -4.247647e-01 -3.543166e-01 -2.735503e-01 -1.850615e-01 -9.140577e-02 4.892594e-03 1.013155e-01 1.953159e-01 2.842832e-01 3.655184e-01 4.362311e-01 4.935720e-01 5.347152e-01 5.570026e-01 5.581580e-01 5.365633e-01 4.915716e-01 4.238095e-01 3.353984e-01 2.300235e-01 1.127914e-01 -1.013722e-02 -1.321023e-01 -2.465919e-01 -3.478570e-01 -4.313761e-01 -4.941000e-01 -5.344703e-01 -5.522615e-01 -5.483208e-01 -5.242783e-01 -4.558422e-01 -4.018359e-01 -3.353681e-01 -2.589184e-01 -1.749755e-01 -8.601237e-02 5.512586e-03 9.713885e-02 1.863785e-01 2.706911e-01 3.474693e-01 4.140437e-01 4.677223e-01 5.058729e-01 5.260626e-01 5.262546e-01 5.050573e-01 4.619995e-01 3.977891e-01 3.144943e-01 2.155879e-01 1.058067e-01 -9.183535e-03 -1.232808e-01 -2.305166e-01 -3.255970e-01 -4.043152e-01 -4.637766e-01 -5.024300e-01 -5.199432e-01 -5.169849e-01 -4.949740e-01 -4.273396e-01 -3.770832e-01 -3.148965e-01 -2.431099e-01 -1.640920e-01 -8.022128e-02 6.121240e-03 9.254370e-02 1.766282e-01 2.559165e-01 3.279049e-01 3.900586e-01 4.398556e-01 4.748706e-01 4.929059e-01 4.921712e-01 4.715029e-01 4.306011e-01 3.702444e-01 2.924328e-01 2.004090e-01 9.852148e-02 -8.076021e-03 -1.138556e-01 -2.134081e-01 -3.019108e-01 -3.754882e-01 -4.314164e-01 -4.681649e-01 -4.853034e-01 -4.833246e-01 -4.634333e-01 -3.980486e-01 -3.516111e-01 -2.938131e-01 -2.268284e-01 -1.528980e-01 -7.429667e-02 6.680651e-03 8.771998e-02 1.664827e-01 2.406014e-01 3.076848e-01 3.653397e-01 4.112202e-01 4.431101e-01 4.590457e-01 4.574765e-01 4.374563e-01 3.988422e-01 3.424682e-01 2.702536e-01 1.852044e-01 9.128164e-02 -6.864830e-03 -1.042687e-01 -1.960681e-01 -2.779049e-01 -3.462356e-01 -3.985162e-01 -4.332502e-01 -4.499239e-01 -4.488670e-01 -4.310778e-01 -3.691695e-01 -3.264628e-01 -2.729806e-01 -2.107403e-01 -1.418521e-01 -6.848272e-02 7.165160e-03 8.286151e-02 1.563531e-01 2.253688e-01 2.876334e-01 3.408973e-01 3.829882e-01 4.118927e-01 4.258694e-01 4.235914e-01 4.043099e-01 3.680181e-01 3.155892e-01 2.488532e-01 1.705831e-01 8.436982e-02 -5.612051e-03 -9.492294e-02 -1.792148e-01 -2.545684e-01 -3.177607e-01 -3.664281e-01 -3.991202e-01 -4.152577e-01 -4.150261e-01 -3.992344e-01 -3.417744e-01 -3.025750e-01 -2.531766e-01 -1.954462e-01 -1.313657e-01 -6.299335e-02 7.561950e-03 7.815678e-02 1.466256e-01 2.107950e-01 2.685048e-01 3.176442e-01 3.562062e-01 3.823661e-01 3.945852e-01 3.917367e-01 3.732435e-01 3.392123e-01 2.905392e-01 2.289618e-01 1.570330e-01 7.800371e-02 -4.382973e-03 -8.616342e-02 -1.634543e-01 -2.327367e-01 -2.910845e-01 -3.363087e-01 -3.670130e-01 -3.825709e-01 -3.830459e-01 -3.690802e-01 -3.167790e-01 -2.807522e-01 -2.350711e-01 -1.814636e-01 -1.217908e-01 -5.800722e-02 7.869585e-03 7.378119e-02 1.376480e-01 1.973907e-01 2.509586e-01 2.963700e-01 3.317681e-01 3.554972e-01 3.661969e-01 3.629123e-01 3.452103e-01 3.132874e-01 2.680498e-01 2.111449e-01 1.449261e-01 7.234326e-02 -3.237855e-03 -7.826853e-02 -1.492710e-01 -2.130786e-01 -2.670303e-01 -3.090990e-01 -3.379467e-01 -3.529157e-01 -3.539707e-01 -3.416123e-01 -2.949324e-01 -2.616568e-01 -2.192178e-01 -1.692200e-01 -1.134165e-01 -5.366703e-02 8.095239e-03 6.989090e-02 1.297201e-01 1.855901e-01 2.355489e-01 2.777293e-01 3.104059e-01 3.320675e-01 3.415041e-01 3.379028e-01 3.209464e-01 2.908999e-01 2.486702e-01 1.958212e-01 1.345336e-01 6.750176e-02 -2.226339e-03 -7.144980e-02 -1.370315e-01 -1.961027e-01 -2.462301e-01 -2.855297e-01 -3.127211e-01 -3.271284e-01 -3.286398e-01 -3.176402e-01 -2.768220e-01 -2.458116e-01 -2.060551e-01 -1.590543e-01 -1.064704e-01 -5.008184e-02 8.251295e-03 6.661863e-02 1.230898e-01 1.757466e-01 2.227214e-01 2.622429e-01 2.926942e-01 3.126822e-01 3.211169e-01 3.172977e-01 3.009965e-01 2.725282e-01 2.327943e-01 1.832873e-01 1.260456e-01 6.355707e-02 -1.385179e-03 -6.585845e-02 -1.269986e-01 -1.821769e-01 -2.291462e-01 -2.661422e-01 -2.919368e-01 -3.058453e-01 -3.076990e-01 -2.977931e-01 -2.628869e-01 -2.336099e-01 -1.959142e-01 -1.512222e-01 -1.011231e-01 -4.733116e-02 8.352021e-03 6.407125e-02 1.179517e-01 1.681345e-01 2.128181e-01 2.503058e-01 2.790639e-01 2.977887e-01 3.054803e-01 3.015205e-01 2.857458e-01 2.585051e-01 2.206926e-01 1.737442e-01 1.195897e-01 6.056125e-02 -7.388415e-04 -6.159587e-02 -1.193500e-01 -1.715533e-01 -2.160998e-01 -2.513182e-01 -2.760232e-01 -2.895274e-01 -2.916224e-01 -2.825376e-01 -2.534359e-01 -2.253296e-01 -1.890300e-01 -1.459053e-01 -9.749523e-02 -4.546954e-02 8.410672e-03 6.232880e-02 1.144487e-01 1.629528e-01 2.060848e-01 2.421991e-01 2.698184e-01 2.876985e-01 2.948996e-01 2.908579e-01 2.754510e-01 2.490492e-01 2.125402e-01 1.673206e-01 1.152471e-01 5.854776e-02 -3.018711e-04 -5.872523e-02 -1.141983e-01 -1.643937e-01 -2.073005e-01 -2.413108e-01 -2.652695e-01 -2.784893e-01 -2.807368e-01 -2.721988e-01 -2.486634e-01 -2.211468e-01 -1.855517e-01 -1.432188e-01 -9.566286e-02 -4.453071e-02 8.437301e-03 6.144437e-02 1.126742e-01 1.603303e-01 2.026796e-01 2.381022e-01 2.651493e-01 2.826066e-01 2.895643e-01 2.854851e-01 2.702673e-01 2.442910e-01 2.084403e-01 1.640916e-01 1.130650e-01 5.753642e-02 -8.184097e-05 -5.728207e-02 -1.116080e-01 -1.607925e-01 -2.028723e-01 -2.362717e-01 -2.598514e-01 -2.729244e-01 -2.752455e-01 -2.669806e-01 -2.534359e-01 -2.253296e-01 -1.890300e-01 -1.459053e-01 -9.749523e-02 -4.546954e-02 8.410674e-03 6.232881e-02 1.144487e-01 1.629528e-01 2.060848e-01 2.421991e-01 2.698184e-01 2.876985e-01 2.948996e-01 2.908579e-01 2.754510e-01 2.490492e-01 2.125402e-01 1.673206e-01 1.152471e-01 5.854775e-02 -3.018710e-04 -5.872523e-02 -1.141983e-01 -1.643937e-01 -2.073005e-01 -2.413108e-01 -2.652695e-01 -2.784893e-01 -2.807368e-01 -2.721988e-01 -2.584579e-01 -2.297232e-01 -1.926778e-01 -1.487189e-01 -9.941238e-02 -4.645115e-02 8.382699e-03 6.325284e-02 1.163033e-01 1.656955e-01 2.096494e-01 2.464929e-01 2.747190e-01 2.930516e-01 3.005185e-01 2.965264e-01 2.809298e-01 2.540866e-01 2.168869e-01 1.707474e-01 1.175636e-01 5.961903e-02 -5.422804e-04 -6.026899e-02 -1.169633e-01 -1.682323e-01 -2.120136e-01 -2.466653e-01 -2.710163e-01 -2.843802e-01 -2.865380e-01 -2.777006e-01 -2.684113e-01 -2.384274e-01 -1.999024e-01 -1.542910e-01 -1.032104e-01 -4.839876e-02 8.320911e-03 6.507399e-02 1.199661e-01 1.711173e-01 2.167016e-01 2.549943e-01 2.844294e-01 3.036671e-01 3.116705e-01 3.077861e-01 2.918214e-01 2.641082e-01 2.255403e-01 1.775735e-01 1.221800e-01 6.175499e-02 -1.020330e-03 -6.334410e-02 -1.224703e-01 -1.758745e-01 -2.213918e-01 -2.573127e-01 -2.824359e-01 -2.960778e-01 -2.980497e-01 -2.886110e-01 -2.831066e-01 -2.512690e-01 -2.105563e-01 -1.625072e-01 -1.088136e-01 -5.127930e-02 8.214386e-03 6.773805e-02 1.253424e-01 1.790882e-01 2.270828e-01 2.675245e-01 2.987601e-01 3.193546e-01 3.281734e-01 3.244716e-01 3.079831e-01 2.789977e-01 2.384114e-01 1.877364e-01 1.290589e-01 6.494100e-02 -1.728758e-03 -6.792102e-02 -1.306657e-01 -1.872407e-01 -2.353276e-01 -2.731180e-01 -2.993680e-01 -3.134020e-01 -3.150789e-01 -3.047338e-01 -3.022403e-01 -2.679728e-01 -2.244056e-01 -1.731861e-01 -1.161018e-01 -5.503874e-02 8.048635e-03 7.116302e-02 1.322868e-01 1.894067e-01 2.405449e-01 2.838012e-01 3.174087e-01 3.398066e-01 3.497294e-01 3.463075e-01 3.291729e-01 2.985538e-01 2.553436e-01 2.011248e-01 1.381325e-01 6.915116e-02 -2.652730e-03 -7.394384e-02 -1.414510e-01 -2.021877e-01 -2.536325e-01 -2.938494e-01 -3.215430e-01 -3.360540e-01 -3.373107e-01 -3.257522e-01 -3.253742e-01 -2.881444e-01 -2.411168e-01 -1.860697e-01 -1.249025e-01 -5.959734e-02 7.807976e-03 7.523891e-02 1.406000e-01 2.017928e-01 2.567402e-01 3.034245e-01 3.399412e-01 3.645753e-01 3.758972e-01 3.728792e-01 3.550192e-01 3.224610e-01 2.760858e-01 2.175563e-01 1.492886e-01 7.434281e-02 -3.766148e-03 -8.131776e-02 -1.546621e-01 -2.204822e-01 -2.760065e-01 -3.191457e-01 -3.485488e-01 -3.635863e-01 -3.642802e-01 -3.512042e-01 -3.519142e-01 -3.112528e-01 -2.602436e-01 -2.008125e-01 -1.349839e-01 -6.484436e-02 7.478611e-03 7.982843e-02 1.500268e-01 2.158831e-01 2.752112e-01 3.258613e-01 3.657716e-01 3.930464e-01 4.060616e-01 4.035965e-01 3.849824e-01 3.502511e-01 3.002580e-01 2.367501e-01 1.623515e-01 8.044811e-02 -5.028507e-03 -8.989473e-02 -1.700455e-01 -2.417696e-01 -3.020013e-01 -3.484777e-01 -3.797938e-01 -3.953669e-01 -3.953410e-01 -3.804563e-01 -3.810909e-01 -3.366167e-01 -2.812156e-01 -2.169738e-01 -1.460480e-01 -7.063311e-02 7.052260e-03 8.476919e-02 1.602561e-01 2.312280e-01 2.953848e-01 3.504351e-01 3.941447e-01 4.244160e-01 4.394026e-01 4.376587e-01 4.183155e-01 3.812634e-01 3.273127e-01 2.582935e-01 1.770583e-01 8.736215e-02 -6.383871e-03 -9.945981e-02 -1.872336e-01 -2.655406e-01 -3.309830e-01 -3.811100e-01 -4.144686e-01 -4.305457e-01 -4.296364e-01 -4.126795e-01 -4.119499e-01 -3.633971e-01 -3.033343e-01 -2.340142e-01 -1.577280e-01 -7.677781e-02 6.529914e-03 8.987784e-02 1.709248e-01 2.472944e-01 3.165721e-01 3.763216e-01 4.241274e-01 4.576750e-01 4.748738e-01 4.740256e-01 4.540300e-01 4.146065e-01 3.564980e-01 2.816093e-01 1.930334e-01 9.492814e-02 -7.763359e-03 -1.097214e-01 -2.057244e-01 -2.911039e-01 -3.621004e-01 -4.160677e-01 -4.515172e-01 -4.680290e-01 -4.660795e-01 -4.468348e-01 -4.433569e-01 -3.906045e-01 -3.257796e-01 -2.513014e-01 -1.695915e-01 -8.305365e-02 5.924989e-03 9.495629e-02 1.816271e-01 2.634760e-01 3.379795e-01 4.025587e-01 4.546152e-01 4.916106e-01 5.111973e-01 5.114048e-01 4.908765e-01 4.491339e-01 3.868290e-01 3.059279e-01 2.097653e-01 1.029215e-01 -9.091919e-03 -1.203087e-01 -2.248709e-01 -3.175705e-01 -3.942677e-01 -4.521217e-01 -4.896239e-01 -5.064723e-01 -5.033507e-01 -4.816753e-01 -4.740243e-01 -4.171236e-01 -3.476318e-01 -2.681265e-01 -1.811515e-01 -8.920164e-02 5.265032e-03 9.979991e-02 1.919280e-01 2.791131e-01 3.587323e-01 4.280723e-01 4.843585e-01 5.248317e-01 5.468850e-01 5.482678e-01 5.273527e-01 4.834444e-01 4.170827e-01 3.302770e-01 2.265936e-01 1.110371e-01 -1.029861e-02 -1.307789e-01 -2.438867e-01 -3.438585e-01 -4.261712e-01 -4.877986e-01 -5.272298e-01 -5.443014e-01 -5.399225e-01 -5.157725e-01 -5.025633e-01 -4.417599e-01 -3.679095e-01 -2.837347e-01 -1.918867e-01 -9.493928e-02 4.591195e-03 1.042072e-01 2.013836e-01 2.935216e-01 3.779121e-01 4.517218e-01 5.120141e-01 5.558229e-01 5.802935e-01 5.829020e-01 5.617512e-01 5.159213e-01 4.458262e-01 3.534988e-01 2.427159e-01 1.188869e-01 -1.132771e-02 -1.406360e-01 -2.618716e-01 -3.687271e-01 -4.563110e-01 -5.214294e-01 -5.625862e-01 -5.797686e-01 -5.741171e-01 -5.475727e-01 -5.275632e-01 -4.633070e-01 -3.856264e-01 -2.973676e-01 -2.012722e-01 -9.997729e-02 3.954995e-03 1.079901e-01 2.095648e-01 3.060310e-01 3.946092e-01 4.723648e-01 5.362215e-01 5.830314e-01 6.097179e-01 6.135080e-01 5.922533e-01 5.448197e-01 4.714917e-01 3.743082e-01 2.572254e-01 1.260145e-01 -1.214657e-02 -1.493606e-01 -2.778619e-01 -3.908439e-01 -4.830826e-01 -5.512416e-01 -5.938520e-01 -6.110516e-01 -6.042014e-01 -5.754855e-01 -5.476932e-01 -4.806334e-01 -3.998601e-01 -3.083174e-01 -2.088162e-01 -1.040413e-01 3.412369e-03 1.109842e-01 2.160841e-01 3.160280e-01 4.079832e-01 4.889365e-01 5.557008e-01 6.049811e-01 6.335197e-01 6.383365e-01 6.170712e-01 5.684036e-01 4.925007e-01 3.913953e-01 2.691832e-01 1.319328e-01 -1.274630e-02 -1.564485e-01 -2.909040e-01 -4.088874e-01 -5.049002e-01 -5.754944e-01 -6.192335e-01 -6.363903e-01 -6.285159e-01 -5.979996e-01 -5.618159e-01 -4.927765e-01 -4.098289e-01 -3.159847e-01 -2.141016e-01 -1.068961e-01 3.015860e-03 1.130574e-01 2.206218e-01 3.230016e-01 4.173287e-01 5.005361e-01 5.693601e-01 6.204028e-01 6.502775e-01 6.558559e-01 6.346235e-01 5.851226e-01 5.074295e-01 4.035663e-01 2.777242e-01 1.361833e-01 -1.313461e-02 -1.614561e-01 -3.001466e-01 -4.216775e-01 -5.203524e-01 -5.926473e-01 -6.371547e-01 -6.542495e-01 -6.456238e-01 -6.138159e-01 -5.690979e-01 -4.990336e-01 -4.149635e-01 -3.199332e-01 -2.168245e-01 -1.083691e-01 2.806396e-03 1.141177e-01 2.229500e-01 3.265845e-01 4.221354e-01 5.065085e-01 5.764010e-01 6.283618e-01 6.589374e-01 6.649222e-01 6.437202e-01 5.938006e-01 5.151902e-01 4.099029e-01 2.821784e-01 1.384073e-01 -1.332433e-02 -1.640501e-01 -3.049437e-01 -4.283169e-01 -5.283692e-01 -6.015383e-01 -6.464335e-01 -6.634855e-01 -6.544614e-01 -6.219782e-01 -5.690979e-01 -4.990336e-01 -4.149635e-01 -3.199332e-01 -2.168245e-01 -1.083691e-01 2.806392e-03 1.141177e-01 2.229500e-01 3.265845e-01 4.221354e-01 5.065085e-01 5.764010e-01 6.283618e-01 6.589374e-01 6.649222e-01 6.437202e-01 5.938006e-01 5.151902e-01 4.099029e-01 2.821784e-01 1.384073e-01 -1.332433e-02 -1.640501e-01 -3.049437e-01 -4.283169e-01 -5.283692e-01 -6.015383e-01 -6.464334e-01 -6.634855e-01 -6.544614e-01 -6.219782e-01 -5.618159e-01 -4.927765e-01 -4.098289e-01 -3.159847e-01 -2.141016e-01 -1.068961e-01 3.015860e-03 1.130574e-01 2.206218e-01 3.230016e-01 4.173287e-01 5.005361e-01 5.693601e-01 6.204028e-01 6.502775e-01 6.558559e-01 6.346235e-01 5.851226e-01 5.074295e-01 4.035663e-01 2.777242e-01 1.361833e-01 -1.313461e-02 -1.614561e-01 -3.001466e-01 -4.216775e-01 -5.203524e-01 -5.926473e-01 -6.371547e-01 -6.542495e-01 -6.456238e-01 -6.138159e-01 -5.476932e-01 -4.806334e-01 -3.998601e-01 -3.083174e-01 -2.088162e-01 -1.040413e-01 3.412369e-03 1.109842e-01 2.160841e-01 3.160280e-01 4.079832e-01 4.889365e-01 5.557008e-01 6.049811e-01 6.335197e-01 6.383365e-01 6.170712e-01 5.684036e-01 4.925007e-01 3.913953e-01 2.691832e-01 1.319328e-01 -1.274630e-02 -1.564485e-01 -2.909040e-01 -4.088874e-01 -5.049002e-01 -5.754944e-01 -6.192335e-01 -6.363903e-01 -6.285159e-01 -5.979996e-01 -5.275632e-01 -4.633070e-01 -3.856264e-01 -2.973676e-01 -2.012722e-01 -9.997729e-02 3.955000e-03 1.079901e-01 2.095648e-01 3.060310e-01 3.946092e-01 4.723648e-01 5.362215e-01 5.830314e-01 6.097179e-01 6.135080e-01 5.922533e-01 5.448197e-01 4.714917e-01 3.743082e-01 2.572254e-01 1.260145e-01 -1.214657e-02 -1.493606e-01 -2.778619e-01 -3.908439e-01 -4.830826e-01 -5.512416e-01 -5.938520e-01 -6.110516e-01 -6.042014e-01 -5.754855e-01 -5.025633e-01 -4.417599e-01 -3.679095e-01 -2.837347e-01 -1.918867e-01 -9.493929e-02 4.591195e-03 1.042072e-01 2.013836e-01 2.935216e-01 3.779121e-01 4.517218e-01 5.120141e-01 5.558229e-01 5.802935e-01 5.829020e-01 5.617512e-01 5.159213e-01 4.458262e-01 3.534988e-01 2.427159e-01 1.188869e-01 -1.132772e-02 -1.406360e-01 -2.618716e-01 -3.687271e-01 -4.563110e-01 -5.214294e-01 -5.625862e-01 -5.797686e-01 -5.741171e-01 -5.475727e-01 -4.740243e-01 -4.171236e-01 -3.476318e-01 -2.681265e-01 -1.811515e-01 -8.920164e-02 5.265032e-03 9.979991e-02 1.919280e-01 2.791131e-01 3.587323e-01 4.280723e-01 4.843585e-01 5.248317e-01 5.468850e-01 5.482678e-01 5.273527e-01 4.834444e-01 4.170827e-01 3.302770e-01 2.265936e-01 1.110371e-01 -1.029861e-02 -1.307789e-01 -2.438867e-01 -3.438585e-01 -4.261712e-01 -4.877986e-01 -5.272298e-01 -5.443014e-01 -5.399225e-01 -5.157725e-01 -4.433569e-01 -3.906045e-01 -3.257796e-01 -2.513014e-01 -1.695915e-01 -8.305365e-02 5.924992e-03 9.495629e-02 1.816271e-01 2.634760e-01 3.379795e-01 4.025587e-01 4.546152e-01 4.916106e-01 5.111973e-01 5.114048e-01 4.908765e-01 4.491339e-01 3.868290e-01 3.059279e-01 2.097653e-01 1.029215e-01 -9.091919e-03 -1.203087e-01 -2.248709e-01 -3.175705e-01 -3.942677e-01 -4.521217e-01 -4.896239e-01 -5.064723e-01 -5.033507e-01 -4.816753e-01 -4.119500e-01 -3.633971e-01 -3.033343e-01 -2.340142e-01 -1.577280e-01 -7.677781e-02 6.529915e-03 8.987785e-02 1.709248e-01 2.472944e-01 3.165721e-01 3.763216e-01 4.241274e-01 4.576750e-01 4.748737e-01 4.740256e-01 4.540300e-01 4.146065e-01 3.564980e-01 2.816093e-01 1.930334e-01 9.492814e-02 -7.763358e-03 -1.097214e-01 -2.057244e-01 -2.911039e-01 -3.621004e-01 -4.160677e-01 -4.515172e-01 -4.680290e-01 -4.660795e-01 -4.468348e-01 -3.810909e-01 -3.366167e-01 -2.812156e-01 -2.169738e-01 -1.460480e-01 -7.063312e-02 7.052259e-03 8.476920e-02 1.602561e-01 2.312280e-01 2.953848e-01 3.504351e-01 3.941447e-01 4.244160e-01 4.394026e-01 4.376587e-01 4.183155e-01 3.812634e-01 3.273127e-01 2.582935e-01 1.770583e-01 8.736215e-02 -6.383871e-03 -9.945981e-02 -1.872336e-01 -2.655406e-01 -3.309830e-01 -3.811100e-01 -4.144686e-01 -4.305457e-01 -4.296364e-01 -4.126795e-01 -3.519142e-01 -3.112528e-01 -2.602436e-01 -2.008125e-01 -1.349839e-01 -6.484436e-02 7.478612e-03 7.982843e-02 1.500268e-01 2.158831e-01 2.752112e-01 3.258613e-01 3.657716e-01 3.930464e-01 4.060616e-01 4.035965e-01 3.849824e-01 3.502511e-01 3.002580e-01 2.367500e-01 1.623515e-01 8.044810e-02 -5.028508e-03 -8.989473e-02 -1.700455e-01 -2.417696e-01 -3.020013e-01 -3.484777e-01 -3.797938e-01 -3.953669e-01 -3.953410e-01 -3.804563e-01 -3.253742e-01 -2.881444e-01 -2.411168e-01 -1.860697e-01 -1.249025e-01 -5.959734e-02 7.807977e-03 7.523891e-02 1.406000e-01 2.017928e-01 2.567402e-01 3.034245e-01 3.399412e-01 3.645753e-01 3.758972e-01 3.728792e-01 3.550192e-01 3.224610e-01 2.760858e-01 2.175563e-01 1.492886e-01 7.434281e-02 -3.766147e-03 -8.131776e-02 -1.546621e-01 -2.204822e-01 -2.760065e-01 -3.191457e-01 -3.485488e-01 -3.635863e-01 -3.642802e-01 -3.512042e-01 -3.022403e-01 -2.679728e-01 -2.244056e-01 -1.731861e-01 -1.161018e-01 -5.503874e-02 8.048636e-03 7.116303e-02 1.322868e-01 1.894067e-01 2.405449e-01 2.838012e-01 3.174087e-01 3.398066e-01 3.497294e-01 3.463075e-01 3.291729e-01 2.985538e-01 2.553436e-01 2.011248e-01 1.381325e-01 6.915116e-02 -2.652730e-03 -7.394384e-02 -1.414510e-01 -2.021877e-01 -2.536325e-01 -2.938494e-01 -3.215430e-01 -3.360540e-01 -3.373107e-01 -3.257522e-01 -2.831066e-01 -2.512690e-01 -2.105563e-01 -1.625072e-01 -1.088136e-01 -5.127930e-02 8.214382e-03 6.773805e-02 1.253424e-01 1.790882e-01 2.270828e-01 2.675245e-01 2.987601e-01 3.193546e-01 3.281734e-01 3.244716e-01 3.079831e-01 2.789977e-01 2.384114e-01 1.877364e-01 1.290589e-01 6.494100e-02 -1.728757e-03 -6.792102e-02 -1.306657e-01 -1.872407e-01 -2.353276e-01 -2.731180e-01 -2.993680e-01 -3.134020e-01 -3.150789e-01 -3.047338e-01 -2.684113e-01 -2.384274e-01 -1.999024e-01 -1.542910e-01 -1.032104e-01 -4.839876e-02 8.320914e-03 6.507399e-02 1.199661e-01 1.711173e-01 2.167016e-01 2.549943e-01 2.844294e-01 3.036671e-01 3.116705e-01 3.077861e-01 2.918214e-01 2.641082e-01 2.255403e-01 1.775735e-01 1.221800e-01 6.175499e-02 -1.020332e-03 -6.334410e-02 -1.224703e-01 -1.758745e-01 -2.213918e-01 -2.573127e-01 -2.824359e-01 -2.960778e-01 -2.980497e-01 -2.886110e-01 -2.584579e-01 -2.297232e-01 -1.926778e-01 -1.487189e-01 -9.941238e-02 -4.645115e-02 8.382700e-03 6.325284e-02 1.163033e-01 1.656955e-01 2.096494e-01 2.464929e-01 2.747190e-01 2.930516e-01 3.005185e-01 2.965263e-01 2.809298e-01 2.540866e-01 2.168869e-01 1.707474e-01 1.175636e-01 5.961903e-02 -5.422803e-04 -6.026898e-02 -1.169633e-01 -1.682323e-01 -2.120136e-01 -2.466653e-01 -2.710163e-01 -2.843802e-01 -2.865380e-01 -2.777006e-01 -2.534359e-01 -2.253296e-01 -1.890300e-01 -1.459053e-01 -9.749523e-02 -4.546954e-02 8.410671e-03 6.232881e-02 1.144487e-01 1.629528e-01 2.060848e-01 2.421991e-01 2.698184e-01 2.876985e-01 2.948996e-01 2.908579e-01 2.754510e-01 2.490492e-01 2.125402e-01 1.673206e-01 1.152471e-01 5.854776e-02 -3.018694e-04 -5.872524e-02 -1.141983e-01 -1.643937e-01 -2.073005e-01 -2.413108e-01 -2.652695e-01 -2.784893e-01 -2.807368e-01 -2.721988e-01 -2.628869e-01 -2.336099e-01 -1.959142e-01 -1.512222e-01 -1.011232e-01 -4.733116e-02 8.352016e-03 6.407125e-02 1.179517e-01 1.681345e-01 2.128181e-01 2.503058e-01 2.790639e-01 2.977887e-01 3.054802e-01 3.015205e-01 2.857458e-01 2.585051e-01 2.206926e-01 1.737442e-01 1.195897e-01 6.056125e-02 -7.388366e-04 -6.159586e-02 -1.193500e-01 -1.715533e-01 -2.160998e-01 -2.513182e-01 -2.760232e-01 -2.895274e-01 -2.916224e-01 -2.825376e-01 -2.684113e-01 -2.384274e-01 -1.999024e-01 -1.542910e-01 -1.032104e-01 -4.839876e-02 8.320914e-03 6.507399e-02 1.199661e-01 1.711173e-01 2.167016e-01 2.549943e-01 2.844294e-01 3.036671e-01 3.116705e-01 3.077861e-01 2.918214e-01 2.641082e-01 2.255403e-01 1.775735e-01 1.221800e-01 6.175499e-02 -1.020329e-03 -6.334410e-02 -1.224703e-01 -1.758745e-01 -2.213918e-01 -2.573127e-01 -2.824359e-01 -2.960778e-01 -2.980497e-01 -2.886110e-01 -2.793766e-01 -2.479840e-01 -2.078108e-01 -1.603753e-01 -1.073497e-01 -5.051935e-02 8.251883e-03 6.705156e-02 1.239475e-01 1.770188e-01 2.243920e-01 2.642870e-01 2.950735e-01 3.153400e-01 3.239748e-01 3.202528e-01 3.039222e-01 2.752786e-01 2.352129e-01 1.852199e-01 1.273558e-01 6.414203e-02 -1.580951e-03 -6.683532e-02 -1.287009e-01 -1.844996e-01 -2.319476e-01 -2.692605e-01 -2.952063e-01 -3.091111e-01 -3.108268e-01 -3.006747e-01 -2.956056e-01 -2.621145e-01 -2.194966e-01 -1.693634e-01 -1.134674e-01 -5.366146e-02 8.132135e-03 6.994755e-02 1.297992e-01 1.857073e-01 2.357306e-01 2.780075e-01 3.108128e-01 3.326280e-01 3.422280e-01 3.387780e-01 3.219335e-01 2.919314e-01 2.496540e-01 1.966506e-01 1.351020e-01 6.772011e-02 -2.413518e-03 -7.205289e-02 -1.380126e-01 -1.973815e-01 -2.476972e-01 -2.870645e-01 -3.142094e-01 -3.284770e-01 -3.297849e-01 -3.185504e-01 -3.168073e-01 -2.805505e-01 -2.347288e-01 -1.810752e-01 -1.214439e-01 -5.777249e-02 7.944549e-03 7.367603e-02 1.373707e-01 1.969764e-01 2.504655e-01 2.958727e-01 3.313489e-01 3.552342e-01 3.661509e-01 3.631139e-01 3.456493e-01 3.139073e-01 2.687505e-01 2.117947e-01 1.453832e-01 7.248183e-02 -3.501532e-03 -7.895680e-02 -1.503383e-01 -2.144197e-01 -2.685005e-01 -3.105414e-01 -3.392198e-01 -3.539142e-01 -3.546377e-01 