<VTKFile type="RectilinearGrid">
<RectilinearGrid WholeExtent="0 32 0 32 0 32" GhostLevel="0">
<Piece Extent="0 32 0 32 0 32">
<CellData Scalars="p phase" Vectors="vel">
<DataArray type="Float32" Name="p">
-2.578370e-01 -2.322284e-01 -1.989163e-01 -1.591924e-01 -1.145064e-01 -6.642203e-02 -1.657995e-02 3.333769e-02 8.163977e-02 1.266603e-01 1.667952e-01 2.005448e-01 2.265627e-01 2.437113e-01 2.511220e-01 2.482579e-01 2.349714e-01 2.115511e-01 1.787478e-01 1.377737e-01 9.026681e-02 3.822037e-02 -1.612066e-02 -7.038685e-02 -1.222234e-01 -1.694257e-01 -2.100592e-01 -2.425503e-01 -2.657462e-01 -2.789390e-01 -2.818610e-01 -2.746565e-01 -2.623486e-01 -2.361790e-01 -2.021988e-01 -1.617272e-01 -1.162381e-01 -6.731702e-02 -1.662327e-02 3.414337e-02 8.327465e-02 1.290863e-01 1.699542e-01 2.043560e-01 2.309199e-01 2.484806e-01 2.561419e-01 2.533405e-01 2.399080e-01 2.161206e-01 1.827293e-01 1.409609e-01 9.248479e-02 3.934054e-02 -1.616804e-02 -7.160568e-02 -1.245508e-01 -1.727381e-01 -2.141831e-01 -2.472782e-01 -2.708527e-01 -2.841969e-01 -2.870550e-01 -2.795926e-01 -2.712825e-01 -2.439979e-01 -2.086929e-01 -1.667408e-01 -1.196635e-01 -6.908842e-02 -1.671173e-02 3.573286e-02 8.650353e-02 1.338807e-01 1.762009e-01 2.118969e-01 2.395465e-01 2.579300e-01 2.660948e-01 2.634254e-01 2.497104e-01 2.252005e-01 1.906455e-01 1.473014e-01 9.689907e-02 4.157100e-02 -1.626141e-02 -7.403060e-02 -1.291812e-01 -1.793258e-01 -2.223812e-01 -2.566714e-01 -2.809914e-01 -2.946291e-01 -2.973531e-01 -2.893728e-01 -2.844533e-01 -2.555154e-01 -2.182528e-01 -1.741185e-01 -1.247043e-01 -7.169798e-02 -1.684853e-02 3.806176e-02 9.124342e-02 1.409259e-01 1.853888e-01 2.229994e-01 2.522614e-01 2.718735e-01 2.807992e-01 2.783428e-01 2.642273e-01 2.386628e-01 2.023948e-01 1.567206e-01 1.034620e-01 4.488998e-02 -1.639715e-02 -7.763275e-02 -1.360598e-01 -1.891074e-01 -2.345445e-01 -2.705947e-01 -2.960035e-01 -3.100583e-01 -3.125666e-01 -3.038055e-01 -3.015673e-01 -2.704641e-01 -2.306500e-01 -1.836810e-01 -1.312382e-01 -7.508539e-02 -1.703766e-02 4.106265e-02 9.736656e-02 1.500400e-01 1.972902e-01 2.374006e-01 2.687783e-01 2.900152e-01 2.999622e-01 2.978163e-01 2.832096e-01 2.562939e-01 2.178050e-01 1.690907e-01 1.120909e-01 4.926001e-02 -1.656822e-02 -8.236048e-02 -1.450900e-01 -2.019412e-01 -2.504873e-01 -2.888209e-01 -3.156264e-01 -3.301950e-01 -3.323908e-01 -3.225843e-01 -3.222066e-01 -2.884667e-01 -2.455640e-01 -1.951778e-01 -1.390943e-01 -7.916572e-02 -1.728264e-02 4.464411e-02 1.046980e-01 1.609718e-01 2.115882e-01 2.547312e-01 2.886917e-01 3.119304e-01 3.231594e-01 3.214390e-01 3.062845e-01 2.777696e-01 2.366104e-01 1.842116e-01 1.226555e-01 5.462168e-02 -1.676244e-02 -8.813044e-02 -1.561179e-01 -2.176044e-01 -2.699216e-01 -3.110040e-01 -3.394665e-01 -3.546122e-01 -3.563828e-01 -3.452693e-01 -3.458130e-01 -3.090238e-01 -2.625733e-01 -2.082805e-01 -1.480487e-01 -8.382634e-02 -1.758534e-02 4.869085e-02 1.130135e-01 1.733964e-01 2.278695e-01 2.745053e-01 3.114617e-01 3.370475e-01 3.498102e-01 3.486464e-01 3.329270e-01 3.026250e-01 2.584242e-01 2.017880e-01 1.349605e-01 6.088555e-02 -1.696171e-02 -9.481720e-02 -1.689137e-01 -2.357682e-01 -2.924289e-01 -3.366486e-01 -3.669690e-01 -3.827176e-01 -3.839363e-01 -3.712657e-01 -3.716754e-01 -3.315049e-01 -2.811493e-01 -2.225791e-01 -1.578215e-01 -8.892512e-02 -1.794420e-02 5.306446e-02 1.220396e-01 1.869140e-01 2.456206e-01 2.961123e-01 3.364024e-01 3.646304e-01 3.791574e-01 3.786905e-01 3.624301e-01 3.302243e-01 2.827092e-01 2.214034e-01 1.487274e-01 6.792167e-02 -1.714218e-02 -1.022439e-01 -1.831533e-01 -2.559730e-01 -3.174305e-01 -3.650796e-01 -3.973892e-01 -4.137273e-01 -4.142609e-01 -3.998081e-01 -3.989264e-01 -3.551474e-01 -3.006569e-01 -2.375828e-01 -1.680779e-01 -9.428981e-02 -1.835292e-02 5.760627e-02 1.314568e-01 2.010525e-01 2.642291e-01 3.188173e-01 3.626784e-01 3.937711e-01 4.102533e-01 4.106218e-01 3.938821e-01 3.597351e-01 3.087509e-01 2.424964e-01 1.635752e-01 7.554836e-02 -1.727698e-02 -1.101756e-01 -1.984042e-01 -2.776079e-01 -3.441651e-01 -3.954191e-01 -4.297721e-01 -4.466498e-01 -4.463694e-01 -4.299522e-01 -4.265517e-01 -3.790676e-01 -3.203648e-01 -2.527282e-01 -1.784329e-01 -9.972052e-02 -1.879891e-02 6.214175e-02 1.409071e-01 2.152775e-01 2.829956e-01 3.417715e-01 3.893139e-01 4.233957e-01 4.419622e-01 4.432854e-01 4.261587e-01 3.901155e-01 3.356427e-01 2.643440e-01 1.790056e-01 8.352136e-02 -1.734128e-02 -1.183189e-01 -2.141200e-01 -2.999030e-01 -3.716797e-01 -4.265796e-01 -4.629475e-01 -4.802857e-01 -4.790825e-01 -4.605829e-01 -4.534186e-01 -4.022858e-01 -3.394669e-01 -2.673966e-01 -1.884639e-01 -1.049951e-01 -1.926301e-02 6.648738e-02 1.500067e-01 2.290098e-01 3.011542e-01 3.640368e-01 4.152186e-01 4.522900e-01 4.729837e-01 4.753423e-01 4.579377e-01 4.201238e-01 3.622892e-01 2.860611e-01 1.943990e-01 9.152766e-02 -1.731956e-02 -1.263293e-01 -2.296484e-01 -3.219385e-01 -3.988417e-01 -4.572794e-01 -4.955516e-01 -5.132522e-01 -5.110562e-01 -4.904425e-01 -4.783242e-01 -4.237696e-01 -3.571183e-01 -2.809412e-01 -1.977282e-01 -1.098786e-01 -1.971966e-02 7.045897e-02 1.583627e-01 2.416510e-01 3.179073e-01 3.846262e-01 4.392340e-01 4.791501e-01 5.019048e-01 5.053193e-01 4.877470e-01 4.483595e-01 3.874393e-01 3.066234e-01 2.090274e-01 9.918810e-02 -1.721267e-02 -1.338277e-01 -2.442566e-01 -3.426785e-01 -4.243804e-01 -4.860909e-01 -5.260781e-01 -5.440381e-01 -5.408362e-01 -5.181841e-01 -5.000640e-01 -4.424916e-01 -3.724822e-01 -2.927229e-01 -2.057882e-01 -1.141370e-01 -2.013892e-02 7.388163e-02 1.655949e-01 2.526167e-01 3.324687e-01 4.025597e-01 4.601990e-01 5.026561e-01 5.272808e-01 5.316938e-01 5.140477e-01 4.733427e-01 4.097561e-01 3.249231e-01 2.220916e-01 1.060746e-01 -1.704209e-02 -1.404253e-01 -2.571752e-01 -3.610309e-01 -4.469599e-01 -5.115217e-01 -5.529657e-01 -5.710903e-01 -5.669420e-01 -5.424480e-01 -5.175160e-01 -4.575003e-01 -3.847864e-01 -3.021533e-01 -2.122409e-01 -1.175525e-01 -2.048929e-02 7.659973e-02 1.713597e-01 2.613737e-01 3.441167e-01 4.169302e-01 4.770307e-01 5.215669e-01 5.477411e-01 5.530082e-01 5.353530e-01 4.936297e-01 4.279221e-01 3.398573e-01 2.327857e-01 1.117444e-01 -1.684783e-02 -1.457543e-01 -2.676584e-01 -3.759334e-01 -4.652824e-01 -5.321296e-01 -5.747150e-01 -5.929293e-01 -5.879745e-01 -5.619592e-01 -5.297316e-01 -4.679947e-01 -3.933832e-01 -3.087397e-01 -2.167481e-01 -1.199417e-01 -2.074183e-02 7.848679e-02 1.753731e-01 2.674790e-01 3.522479e-01 4.269752e-01 4.888132e-01 5.348253e-01 5.621097e-01 5.680030e-01 5.503684e-01 5.079535e-01 4.407723e-01 3.504422e-01 2.403833e-01 1.157907e-01 -1.667953e-02 -1.495005e-01 -2.750558e-01 -3.864550e-01 -4.782125e-01 -5.466574e-01 -5.900268e-01 -6.082808e-01 -6.027365e-01 -5.756335e-01 -5.360210e-01 -4.733945e-01 -3.978045e-01 -3.121262e-01 -2.190657e-01 -1.211714e-01 -2.087416e-02 7.945341e-02 1.774327e-01 2.706147e-01 3.564274e-01 4.321428e-01 4.948800e-01 5.416587e-01 5.695231e-01 5.757477e-01 5.581326e-01 5.153686e-01 4.474323e-01 3.559347e-01 2.443316e-01 1.178994e-01 -1.658211e-02 -1.514344e-01 -2.788835e-01 -3.919015e-01 -4.849038e-01 -5.541707e-01 -5.979388e-01 -6.162061e-01 -6.103500e-01 -5.826797e-01 -5.360210e-01 -4.733945e-01 -3.978045e-01 -3.121262e-01 -2.190658e-01 -1.211713e-01 -2.087418e-02 7.945342e-02 1.774326e-01 2.706147e-01 3.564274e-01 4.321428e-01 4.948800e-01 5.416587e-01 5.695231e-01 5.757478e-01 5.581325e-01 5.153686e-01 4.474323e-01 3.559348e-01 2.443316e-01 1.178994e-01 -1.658212e-02 -1.514343e-01 -2.788836e-01 -3.919015e-01 -4.849038e-01 -5.541707e-01 -5.979388e-01 -6.162061e-01 -6.103500e-01 -5.826797e-01 -5.297315e-01 -4.679947e-01 -3.933832e-01 -3.087397e-01 -2.167481e-01 -1.199417e-01 -2.074182e-02 7.848678e-02 1.753732e-01 2.674790e-01 3.522479e-01 4.269752e-01 4.888132e-01 5.348253e-01 5.621097e-01 5.680029e-01 5.503684e-01 5.079535e-01 4.407723e-01 3.504422e-01 2.403833e-01 1.157907e-01 -1.667952e-02 -1.495005e-01 -2.750558e-01 -3.864550e-01 -4.782125e-01 -5.466574e-01 -5.900267e-01 -6.082809e-01 -6.027365e-01 -5.756335e-01 -5.175160e-01 -4.575003e-01 -3.847864e-01 -3.021533e-01 -2.122409e-01 -1.175525e-01 -2.048930e-02 7.659975e-02 1.713597e-01 2.613737e-01 3.441167e-01 4.169302e-01 4.770307e-01 5.215669e-01 5.477410e-01 5.530082e-01 5.353530e-01 4.936297e-01 4.279221e-01 3.398573e-01 2.327857e-01 1.117445e-01 -1.684783e-02 -1.457543e-01 -2.676584e-01 -3.759334e-01 -4.652825e-01 -5.321296e-01 -5.747150e-01 -5.929293e-01 -5.879745e-01 -5.619592e-01 -5.000640e-01 -4.424916e-01 -3.724822e-01 -2.927229e-01 -2.057882e-01 -1.141370e-01 -2.013891e-02 7.388162e-02 1.655950e-01 2.526167e-01 3.324687e-01 4.025597e-01 4.601990e-01 5.026561e-01 5.272808e-01 5.316938e-01 5.140477e-01 4.733427e-01 4.097561e-01 3.249231e-01 2.220916e-01 1.060746e-01 -1.704208e-02 -1.404253e-01 -2.571751e-01 -3.610310e-01 -4.469599e-01 -5.115217e-01 -5.529657e-01 -5.710903e-01 -5.669420e-01 -5.424480e-01 -4.783242e-01 -4.237695e-01 -3.571183e-01 -2.809412e-01 -1.977282e-01 -1.098786e-01 -1.971967e-02 7.045898e-02 1.583626e-01 2.416511e-01 3.179073e-01 3.846262e-01 4.392340e-01 4.791501e-01 5.019048e-01 5.053193e-01 4.877470e-01 4.483595e-01 3.874393e-01 3.066234e-01 2.090274e-01 9.918811e-02 -1.721268e-02 -1.338276e-01 -2.442566e-01 -3.426784e-01 -4.243804e-01 -4.860909e-01 -5.260781e-01 -5.440381e-01 -5.408362e-01 -5.181840e-01 -4.534186e-01 -4.022858e-01 -3.394669e-01 -2.673966e-01 -1.884639e-01 -1.049951e-01 -1.926299e-02 6.648737e-02 1.500067e-01 2.290098e-01 3.011543e-01 3.640368e-01 4.152186e-01 4.522900e-01 4.729837e-01 4.753423e-01 4.579378e-01 4.201238e-01 3.622892e-01 2.860611e-01 1.943990e-01 9.152765e-02 -1.731955e-02 -1.263293e-01 -2.296484e-01 -3.219385e-01 -3.988417e-01 -4.572794e-01 -4.955516e-01 -5.132523e-01 -5.110562e-01 -4.904425e-01 -4.265517e-01 -3.790675e-01 -3.203648e-01 -2.527281e-01 -1.784329e-01 -9.972051e-02 -1.879893e-02 6.214176e-02 1.409071e-01 2.152775e-01 2.829956e-01 3.417715e-01 3.893139e-01 4.233957e-01 4.419622e-01 4.432854e-01 4.261587e-01 3.901155e-01 3.356427e-01 2.643441e-01 1.790056e-01 8.352137e-02 -1.734129e-02 -1.183189e-01 -2.141200e-01 -2.999030e-01 -3.716797e-01 -4.265796e-01 -4.629475e-01 -4.802857e-01 -4.790825e-01 -4.605829e-01 -3.989264e-01 -3.551474e-01 -3.006569e-01 -2.375828e-01 -1.680778e-01 -9.428983e-02 -1.835290e-02 5.760626e-02 1.314568e-01 2.010525e-01 2.642291e-01 3.188173e-01 3.626785e-01 3.937711e-01 4.102533e-01 4.106218e-01 3.938821e-01 3.597351e-01 3.087509e-01 2.424964e-01 1.635752e-01 7.554835e-02 -1.727697e-02 -1.101756e-01 -1.984042e-01 -2.776079e-01 -3.441651e-01 -3.954191e-01 -4.297721e-01 -4.466498e-01 -4.463694e-01 -4.299522e-01 -3.716754e-01 -3.315049e-01 -2.811493e-01 -2.225791e-01 -1.578215e-01 -8.892510e-02 -1.794422e-02 5.306447e-02 1.220396e-01 1.869140e-01 2.456205e-01 2.961123e-01 3.364024e-01 3.646304e-01 3.791574e-01 3.786906e-01 3.624301e-01 3.302243e-01 2.827091e-01 2.214035e-01 1.487274e-01 6.792168e-02 -1.714219e-02 -1.022439e-01 -1.831533e-01 -2.559730e-01 -3.174305e-01 -3.650795e-01 -3.973892e-01 -4.137273e-01 -4.142609e-01 -3.998081e-01 -3.458129e-01 -3.090238e-01 -2.625733e-01 -2.082805e-01 -1.480487e-01 -8.382635e-02 -1.758532e-02 4.869083e-02 1.130135e-01 1.733964e-01 2.278695e-01 2.745052e-01 3.114617e-01 3.370475e-01 3.498102e-01 3.486464e-01 3.329270e-01 3.026249e-01 2.584242e-01 2.017880e-01 1.349605e-01 6.088553e-02 -1.696170e-02 -9.481721e-02 -1.689137e-01 -2.357682e-01 -2.924289e-01 -3.366486e-01 -3.669690e-01 -3.827176e-01 -3.839363e-01 -3.712657e-01 -3.222066e-01 -2.884667e-01 -2.455640e-01 -1.951778e-01 -1.390943e-01 -7.916571e-02 -1.728266e-02 4.464413e-02 1.046980e-01 1.609718e-01 2.115882e-01 2.547312e-01 2.886917e-01 3.119304e-01 3.231594e-01 3.214390e-01 3.062845e-01 2.777696e-01 2.366104e-01 1.842116e-01 1.226555e-01 5.462169e-02 -1.676245e-02 -8.813043e-02 -1.561179e-01 -2.176043e-01 -2.699216e-01 -3.110040e-01 -3.394665e-01 -3.546122e-01 -3.563828e-01 -3.452692e-01 -3.015673e-01 -2.704641e-01 -2.306500e-01 -1.836810e-01 -1.312382e-01 -7.508541e-02 -1.703765e-02 4.106264e-02 9.736657e-02 1.500400e-01 1.972902e-01 2.374006e-01 2.687783e-01 2.900151e-01 2.999623e-01 2.978163e-01 2.832096e-01 2.562939e-01 2.178050e-01 1.690907e-01 1.120910e-01 4.926000e-02 -1.656821e-02 -8.236049e-02 -1.450900e-01 -2.019412e-01 -2.504872e-01 -2.888209e-01 -3.156264e-01 -3.301950e-01 -3.323908e-01 -3.225843e-01 -2.844533e-01 -2.555154e-01 -2.182528e-01 -1.741185e-01 -1.247043e-01 -7.169796e-02 -1.684855e-02 3.806178e-02 9.124340e-02 1.409259e-01 1.853888e-01 2.229994e-01 2.522614e-01 2.718736e-01 2.807992e-01 2.783428e-01 2.642273e-01 2.386628e-01 2.023948e-01 1.567206e-01 1.034620e-01 4.488999e-02 -1.639716e-02 -7.763274e-02 -1.360598e-01 -1.891074e-01 -2.345445e-01 -2.705947e-01 -2.960036e-01 -3.100583e-01 -3.125666e-01 -3.038055e-01 -2.712825e-01 -2.439980e-01 -2.086929e-01 -1.667408e-01 -1.196635e-01 -6.908843e-02 -1.671172e-02 3.573284e-02 8.650355e-02 1.338807e-01 1.762009e-01 2.118969e-01 2.395466e-01 2.579300e-01 2.660948e-01 2.634254e-01 2.497104e-01 2.252004e-01 1.906455e-01 1.473014e-01 9.689908e-02 4.157099e-02 -1.626140e-02 -7.403061e-02 -1.291812e-01 -1.793259e-01 -2.223812e-01 -2.566714e-01 -2.809914e-01 -2.946291e-01 -2.973531e-01 -2.893728e-01 -2.623486e-01 -2.361790e-01 -2.021988e-01 -1.617272e-01 -1.162381e-01 -6.731701e-02 -1.662328e-02 3.414339e-02 8.327464e-02 1.290863e-01 1.699542e-01 2.043560e-01 2.309199e-01 2.484806e-01 2.561418e-01 2.533405e-01 2.399080e-01 2.161207e-01 1.827293e-01 1.409609e-01 9.248477e-02 3.934055e-02 -1.616805e-02 -7.160567e-02 -1.245508e-01 -1.727380e-01 -2.141831e-01 -2.472782e-01 -2.708527e-01 -2.841969e-01 -2.870550e-01 -2.795926e-01 -2.578370e-01 -2.322284e-01 -1.989163e-01 -1.591924e-01 -1.145063e-01 -6.642205e-02 -1.657994e-02 3.333768e-02 8.163979e-02 1.266603e-01 1.667952e-01 2.005448e-01 2.265627e-01 2.437113e-01 2.511220e-01 2.482579e-01 2.349714e-01 2.115511e-01 1.787478e-01 1.377737e-01 9.026682e-02 3.822036e-02 -1.612065e-02 -7.038686e-02 -1.222233e-01 -1.694257e-01 -2.100591e-01 -2.425504e-01 -2.657462e-01 -2.789390e-01 -2.818610e-01 -2.746565e-01 -2.623486e-01 -2.361790e-01 -2.021988e-01 -1.617272e-01 -1.162381e-01 -6.731702e-02 -1.662327e-02 3.414337e-02 8.327465e-02 1.290863e-01 1.699542e-01 2.043560e-01 2.309199e-01 2.484806e-01 2.561419e-01 2.533405e-01 2.399080e-01 2.161206e-01 1.827293e-01 1.409609e-01 9.248479e-02 3.934054e-02 -1.616804e-02 -7.160568e-02 -1.245508e-01 -1.727381e-01 -2.141831e-01 -2.472782e-01 -2.708527e-01 -2.841969e-01 -2.870550e-01 -2.795926e-01 -2.670948e-01 -2.403266e-01 -2.056387e-01 -1.643792e-01 -1.180475e-01 -6.825081e-02 -1.666741e-02 3.498568e-02 8.498311e-02 1.316226e-01 1.732598e-01 2.083489e-01 2.354914e-01 2.534932e-01 2.614275e-01 2.587026e-01 2.451263e-01 2.209601e-01 1.869531e-01 1.443471e-01 9.484362e-02 4.053194e-02 -1.622082e-02 -7.290768e-02 -1.270344e-01 -1.762691e-01 -2.185738e-01 -2.523041e-01 -2.762710e-01 -2.897645e-01 -2.925429e-01 -2.847965e-01 -2.765006e-01 -2.485411e-01 -2.124483e-01 -1.696277e-01 -1.216283e-01 -7.009992e-02 -1.675761e-02 3.664806e-02 8.835893e-02 1.366375e-01 1.797996e-01 2.162536e-01 2.445484e-01 2.634316e-01 2.719159e-01 2.693517e-01 2.554983e-01 2.305866e-01 1.953614e-01 1.510922e-01 9.954490e-02 4.290771e-02 -1.632489e-02 -7.550194e-02 -1.319827e-01 -1.833022e-01 -2.273145e-01 -2.623026e-01 -2.870421e-01 -3.008235e-01 -3.034348e-01 -2.951167e-01 -2.903851e-01 -2.606550e-01 -2.224827e-01 -1.773579e-01 -1.269020e-01 -7.282597e-02 -1.689743e-02 3.908563e-02 9.331813e-02 1.440124e-01 1.894269e-01 2.279028e-01 2.579115e-01 2.781139e-01 2.874317e-01 2.851269e-01 2.708842e-01 2.448857e-01 2.078660e-01 1.611343e-01 1.065508e-01 4.645182e-02 -1.647639e-02 -7.936490e-02 -1.393517e-01 -1.937700e-01 -2.403131e-01 -2.771555e-01 -3.030231e-01 -3.172100e-01 -3.195523e-01 -3.103686e-01 -3.084585e-01 -2.764023e-01 -2.355131e-01 -1.873895e-01 -1.337453e-01 -7.636832e-02 -1.709115e-02 4.222954e-02 9.973109e-02 1.535632e-01 2.019118e-01 2.430322e-01 2.752951e-01 2.972473e-01 3.076887e-01 3.057620e-01 2.910484e-01 2.636600e-01 2.243125e-01 1.743623e-01 1.157923e-01 5.113480e-02 -1.666716e-02 -8.445161e-02 -1.490583e-01 -2.075501e-01 -2.574054e-01 -2.966578e-01 -3.239710e-01 -3.386509e-01 -3.406026e-01 -3.302536e-01 -3.303033e-01 -2.954035e-01 -2.512154e-01 -1.994684e-01 -1.419847e-01 -8.064066e-02 -1.734289e-02 4.598623e-02 1.074189e-01 1.650336e-01 2.169320e-01 2.612679e-01 2.962903e-01 3.204066e-01 3.322652e-01 3.308573e-01 3.156301e-01 2.866008e-01 2.444530e-01 1.905943e-01 1.271541e-01 5.690712e-02 -1.688287e-02 -9.068476e-02 -1.609624e-01 -2.244390e-01 -2.783259e-01 -3.204852e-01 -3.495114e-01 -3.647333e-01 -3.661516e-01 -3.543357e-01 -3.553535e-01 -3.171499e-01 -2.691591e-01 -2.132587e-01 -1.513908e-01 -8.552787e-02 -1.765491e-02 5.023668e-02 1.161510e-01 1.780901e-01 2.340639e-01 2.821124e-01 3.203464e-01 3.470110e-01 3.605753e-01 3.598472e-01 3.441080e-01 3.132523e-01 2.679139e-01 2.095496e-01 1.404553e-01 6.368938e-02 -1.710131e-02 -9.794211e-02 -1.748440e-01 -2.441224e-01 -3.026719e-01 -3.481570e-01 -3.791002e-01 -3.948705e-01 -3.955935e-01 -3.820159e-01 -3.828781e-01 -3.409917e-01 -2.887986e-01 -2.283366e-01 -1.616746e-01 -9.088324e-02 -1.802620e-02 5.483731e-02 1.256438e-01 1.923184e-01 2.527758e-01 3.049350e-01 3.467559e-01 3.763030e-01 3.918416e-01 3.919674e-01 3.757640e-01 3.429735e-01 2.941581e-01 2.308171e-01 1.554250e-01 7.135980e-02 -1.729262e-02 -1.060438e-01 -1.903790e-01 -2.661420e-01 -3.298656e-01 -3.789959e-01 -4.119861e-01 -4.282669e-01 -4.281215e-01 -4.125096e-01 -4.119718e-01 -3.661331e-01 -3.094715e-01 -2.441906e-01 -1.724870e-01 -9.652778e-02 -1.845054e-02 5.962217e-02 1.355639e-01 2.072261e-01 2.724291e-01 3.289686e-01 3.746468e-01 4.073350e-01 4.250762e-01 4.262293e-01 4.096512e-01 3.749029e-01 3.224504e-01 2.538226e-01 1.716777e-01 7.973895e-02 -1.742214e-02 -1.147432e-01 -2.071194e-01 -2.898676e-01 -3.591214e-01 -4.120946e-01 -4.471793e-01 -4.638925e-01 -4.627081e-01 -4.448323e-01 -4.415617e-01 -3.916409e-01 -3.304067e-01 -2.602280e-01 -1.834243e-01 -1.022519e-01 -1.891531e-02 6.440775e-02 1.455351e-01 2.222514e-01 2.922875e-01 3.533190e-01 4.029896e-01 4.389725e-01 4.590776e-01 4.614101e-01 4.445783e-01 4.079366e-01 3.518313e-01 2.778033e-01 1.886903e-01 8.857419e-02 -1.745724e-02 -1.237232e-01 -2.244811e-01 -3.144788e-01 -3.894256e-01 -4.462967e-01 -4.834365e-01 -5.004733e-01 -4.981018e-01 -4.778023e-01 -4.704333e-01 -4.164691e-01 -3.507469e-01 -2.757927e-01 -1.940390e-01 -1.078213e-01 -1.940055e-02 6.899972e-02 1.551514e-01 2.367810e-01 3.115394e-01 3.769892e-01 4.306225e-01 4.699177e-01 4.924512e-01 4.960686e-01 4.791181e-01 4.407305e-01 3.811123e-01 3.017975e-01 2.057901e-01 9.752727e-02 -1.737698e-02 -1.326037e-01 -2.417477e-01 -3.389681e-01 -4.195399e-01 -4.802044e-01 -5.192738e-01 -5.365099e-01 -5.328501e-01 -5.100658e-01 -4.972811e-01 -4.395033e-01 -3.695847e-01 -2.901930e-01 -2.038596e-01 -1.129864e-01 -1.987960e-02 7.320220e-02 1.639948e-01 2.501777e-01 3.293325e-01 3.989222e-01 4.562996e-01 4.987618e-01 5.236628e-01 5.285967e-01 5.116543e-01 4.717387e-01 4.089052e-01 3.246634e-01 2.221618e-01 1.061723e-01 -1.718277e-02 -1.409581e-01 -2.580948e-01 -3.621710e-01 -4.480393e-01 -5.122222e-01 -5.530160e-01 -5.703305e-01 -5.653546e-01 -5.401516e-01 -5.207828e-01 -4.596246e-01 -3.860145e-01 -3.027411e-01 -2.124171e-01 -1.174970e-01 -2.032063e-02 7.682806e-02 1.716590e-01 2.618151e-01 3.448226e-01 4.180603e-01 4.787621e-01 5.240655e-01 5.511263e-01 5.573108e-01 5.404721e-01 4.992985e-01 4.336958e-01 3.451362e-01 2.368859e-01 1.140114e-01 -1.690481e-02 -1.483422e-01 -2.726369e-01 -3.828309e-01 -4.733902e-01 -5.406454e-01 -5.828909e-01 -6.001864e-01 -5.939621e-01 -5.665548e-01 -5.396948e-01 -4.757876e-01 -3.991950e-01 -3.127999e-01 -2.192771e-01 -1.211194e-01 -2.069011e-02 7.971038e-02 1.777745e-01 2.711195e-01 3.572298e-01 4.334195e-01 4.968277e-01 5.444642e-01 5.733227e-01 5.805811e-01 5.638931e-01 5.217635e-01 4.539653e-01 3.619303e-01 2.490119e-01 1.205142e-01 -1.660044e-02 -1.543293e-01 -2.844986e-01 -3.996979e-01 -4.940709e-01 -5.637926e-01 -6.071655e-01 -6.243843e-01 -6.170886e-01 -5.878473e-01 -5.529566e-01 -4.871065e-01 -4.084161e-01 -3.198330e-01 -2.240737e-01 -1.236557e-01 -2.095687e-02 8.171283e-02 1.820355e-01 2.776121e-01 3.658996e-01 4.441678e-01 5.094907e-01 5.587880e-01 5.889392e-01 5.969868e-01 5.804408e-01 5.376712e-01 4.683520e-01 3.738801e-01 2.576666e-01 1.251813e-01 -1.634153e-02 -1.585507e-01 -2.929018e-01 -4.116564e-01 -5.087249e-01 -5.801733e-01 -6.243145e-01 -6.414459e-01 -6.333627e-01 -6.028030e-01 -5.597926e-01 -4.929361e-01 -4.131623e-01 -3.234517e-01 -2.265417e-01 -1.249618e-01 -2.109684e-02 8.273904e-02 1.842231e-01 2.809486e-01 3.703587e-01 4.497011e-01 5.160163e-01 5.661777e-01 5.970054e-01 6.054717e-01 5.890106e-01 5.459211e-01 4.758239e-01 3.800961e-01 2.621770e-01 1.276220e-01 -1.619310e-02 -1.607338e-01 -2.972609e-01 -4.178628e-01 -5.163279e-01 -5.886653e-01 -6.331953e-01 -6.502709e-01 -6.417699e-01 -6.105202e-01 -5.597926e-01 -4.929361e-01 -4.131623e-01 -3.234518e-01 -2.265417e-01 -1.249619e-01 -2.109683e-02 8.273903e-02 1.842231e-01 2.809486e-01 3.703587e-01 4.497011e-01 5.160163e-01 5.661777e-01 5.970054e-01 6.054717e-01 5.890106e-01 5.459211e-01 4.758239e-01 3.800961e-01 2.621770e-01 1.276220e-01 -1.619309e-02 -1.607338e-01 -2.972608e-01 -4.178628e-01 -5.163279e-01 -5.886653e-01 -6.331953e-01 -6.502709e-01 -6.417699e-01 -6.105202e-01 -5.529566e-01 -4.871065e-01 -4.084161e-01 -3.198330e-01 -2.240737e-01 -1.236557e-01 -2.095688e-02 8.171284e-02 1.820355e-01 2.776121e-01 3.658996e-01 4.441678e-01 5.094907e-01 5.587880e-01 5.889391e-01 5.969868e-01 5.804408e-01 5.376712e-01 4.683520e-01 3.738802e-01 2.576666e-01 1.251813e-01 -1.634154e-02 -1.585507e-01 -2.929018e-01 -4.116564e-01 -5.087249e-01 -5.801733e-01 -6.243145e-01 -6.414459e-01 -6.333627e-01 -6.028030e-01 -5.396948e-01 -4.757876e-01 -3.991950e-01 -3.127999e-01 -2.192771e-01 -1.211194e-01 -2.069010e-02 7.971037e-02 1.777745e-01 2.711194e-01 3.572298e-01 4.334195e-01 4.968278e-01 5.444642e-01 5.733228e-01 5.805811e-01 5.638931e-01 5.217634e-01 4.539653e-01 3.619303e-01 2.490119e-01 1.205141e-01 -1.660043e-02 -1.543293e-01 -2.844985e-01 -3.996979e-01 -4.940709e-01 -5.637926e-01 -6.071655e-01 -6.243843e-01 -6.170886e-01 -5.878473e-01 -5.207828e-01 -4.596246e-01 -3.860145e-01 -3.027411e-01 -2.124171e-01 -1.174969e-01 -2.032064e-02 7.682808e-02 1.716590e-01 2.618151e-01 3.448226e-01 4.180604e-01 4.787621e-01 5.240655e-01 5.511263e-01 5.573108e-01 5.404721e-01 4.992985e-01 4.336958e-01 3.451362e-01 2.368859e-01 1.140114e-01 -1.690481e-02 -1.483422e-01 -2.726369e-01 -3.828309e-01 -4.733903e-01 -5.406454e-01 -5.828909e-01 -6.001864e-01 -5.939621e-01 -5.665548e-01 -4.972811e-01 -4.395033e-01 -3.695847e-01 -2.901930e-01 -2.038596e-01 -1.129864e-01 -1.987959e-02 7.320218e-02 1.639948e-01 2.501777e-01 3.293325e-01 3.989222e-01 4.562996e-01 4.987618e-01 5.236628e-01 5.285967e-01 5.116543e-01 4.717387e-01 4.089052e-01 3.246634e-01 2.221618e-01 1.061723e-01 -1.718276e-02 -1.409582e-01 -2.580947e-01 -3.621710e-01 -4.480393e-01 -5.122222e-01 -5.530160e-01 -5.703305e-01 -5.653546e-01 -5.401516e-01 -4.704333e-01 -4.164691e-01 -3.507469e-01 -2.757927e-01 -1.940390e-01 -1.078213e-01 -1.940056e-02 6.899974e-02 1.551514e-01 2.367810e-01 3.115394e-01 3.769893e-01 4.306225e-01 4.699177e-01 4.924512e-01 4.960686e-01 4.791181e-01 4.407305e-01 3.811122e-01 3.017975e-01 2.057900e-01 9.752728e-02 -1.737699e-02 -1.326037e-01 -2.417477e-01 -3.389681e-01 -4.195399e-01 -4.802044e-01 -5.192738e-01 -5.365099e-01 -5.328501e-01 -5.100658e-01 -4.415617e-01 -3.916409e-01 -3.304067e-01 -2.602280e-01 -1.834243e-01 -1.022519e-01 -1.891530e-02 6.440774e-02 1.455351e-01 2.222513e-01 2.922875e-01 3.533190e-01 4.029896e-01 4.389725e-01 4.590776e-01 4.614100e-01 4.445783e-01 4.079366e-01 3.518313e-01 2.778033e-01 1.886903e-01 8.857418e-02 -1.745723e-02 -1.237232e-01 -2.244811e-01 -3.144788e-01 -3.894256e-01 -4.462967e-01 -4.834365e-01 -5.004733e-01 -4.981018e-01 -4.778023e-01 -4.119718e-01 -3.661331e-01 -3.094715e-01 -2.441906e-01 -1.724871e-01 -9.652777e-02 -1.845055e-02 5.962218e-02 1.355639e-01 2.072261e-01 2.724291e-01 3.289687e-01 3.746468e-01 4.073350e-01 4.250762e-01 4.262293e-01 4.096512e-01 3.749029e-01 3.224504e-01 2.538226e-01 1.716777e-01 7.973896e-02 -1.742215e-02 -1.147431e-01 -2.071194e-01 -2.898676e-01 -3.591214e-01 -4.120946e-01 -4.471793e-01 -4.638924e-01 -4.627081e-01 -4.448323e-01 -3.828781e-01 -3.409917e-01 -2.887986e-01 -2.283366e-01 -1.616745e-01 -9.088325e-02 -1.802619e-02 5.483730e-02 1.256438e-01 1.923184e-01 2.527758e-01 3.049350e-01 3.467559e-01 3.763030e-01 3.918416e-01 3.919674e-01 3.757640e-01 3.429735e-01 2.941581e-01 2.308171e-01 1.554250e-01 7.135979e-02 -1.729261e-02 -1.060438e-01 -1.903790e-01 -2.661420e-01 -3.298656e-01 -3.789959e-01 -4.119861e-01 -4.282669e-01 -4.281215e-01 -4.125096e-01 -3.553535e-01 -3.171499e-01 -2.691591e-01 -2.132587e-01 -1.513908e-01 -8.552785e-02 -1.765493e-02 5.023669e-02 1.161510e-01 1.780901e-01 2.340639e-01 2.821124e-01 3.203464e-01 3.470110e-01 3.605753e-01 3.598472e-01 3.441080e-01 3.132523e-01 2.679138e-01 2.095496e-01 1.404553e-01 6.368939e-02 -1.710132e-02 -9.794210e-02 -1.748440e-01 -2.441224e-01 -3.026719e-01 -3.481570e-01 -3.791002e-01 -3.948705e-01 -3.955935e-01 -3.820159e-01 -3.303033e-01 -2.954035e-01 -2.512154e-01 -1.994684e-01 -1.419847e-01 -8.064067e-02 -1.734288e-02 4.598621e-02 1.074189e-01 1.650336e-01 2.169321e-01 2.612679e-01 2.962903e-01 3.204066e-01 3.322652e-01 3.308573e-01 3.156301e-01 2.866008e-01 2.444530e-01 1.905943e-01 1.271541e-01 5.690711e-02 -1.688286e-02 -9.068477e-02 -1.609624e-01 -2.244391e-01 -2.783259e-01 -3.204852e-01 -3.495114e-01 -3.647333e-01 -3.661516e-01 -3.543357e-01 -3.084585e-01 -2.764023e-01 -2.355131e-01 -1.873895e-01 -1.337454e-01 -7.636831e-02 -1.709117e-02 4.222955e-02 9.973107e-02 1.535632e-01 2.019118e-01 2.430322e-01 2.752951e-01 2.972473e-01 3.076887e-01 3.057620e-01 2.910484e-01 2.636600e-01 2.243124e-01 1.743623e-01 1.157922e-01 5.113481e-02 -1.666717e-02 -8.445160e-02 -1.490583e-01 -2.075501e-01 -2.574054e-01 -2.966577e-01 -3.239711e-01 -3.386509e-01 -3.406026e-01 -3.302536e-01 -2.903851e-01 -2.606550e-01 -2.224827e-01 -1.773579e-01 -1.269020e-01 -7.282598e-02 -1.689742e-02 3.908561e-02 9.331815e-02 1.440124e-01 1.894269e-01 2.279028e-01 2.579115e-01 2.781139e-01 2.874317e-01 2.851269e-01 2.708842e-01 2.448857e-01 2.078660e-01 1.611343e-01 1.065508e-01 4.645181e-02 -1.647638e-02 -7.936491e-02 -1.393517e-01 -1.937700e-01 -2.403131e-01 -2.771555e-01 -3.030231e-01 -3.172101e-01 -3.195523e-01 -3.103686e-01 -2.765006e-01 -2.485411e-01 -2.124483e-01 -1.696277e-01 -1.216283e-01 -7.009991e-02 -1.675762e-02 3.664808e-02 8.835892e-02 1.366375e-01 1.797996e-01 2.162536e-01 2.445484e-01 2.634316e-01 2.719159e-01 2.693517e-01 2.554983e-01 2.305866e-01 1.953614e-01 1.510922e-01 9.954488e-02 4.290772e-02 -1.632490e-02 -7.550193e-02 -1.319828e-01 -1.833021e-01 -2.273145e-01 -2.623025e-01 -2.870421e-01 -3.008235e-01 -3.034348e-01 -2.951166e-01 -2.670948e-01 -2.403266e-01 -2.056386e-01 -1.643792e-01 -1.180475e-01 -6.825082e-02 -1.666740e-02 3.498566e-02 8.498312e-02 1.316226e-01 1.732598e-01 2.083489e-01 2.354915e-01 2.534932e-01 2.614275e-01 2.587026e-01 2.451263e-01 2.209600e-01 1.869531e-01 1.443471e-01 9.484364e-02 4.053193e-02 -1.622081e-02 -7.290769e-02 -1.270344e-01 -1.762691e-01 -2.185738e-01 -2.523041e-01 -2.762710e-01 -2.897645e-01 -2.925429e-01 -2.847965e-01 -2.623486e-01 -2.361790e-01 -2.021988e-01 -1.617272e-01 -1.162381e-01 -6.731701e-02 -1.662328e-02 3.414339e-02 8.327464e-02 1.290863e-01 1.699542e-01 2.043560e-01 2.309199e-01 2.484806e-01 2.561418e-01 2.533405e-01 2.399080e-01 2.161207e-01 1.827293e-01 1.409609e-01 9.248477e-02 3.934055e-02 -1.616805e-02 -7.160567e-02 -1.245508e-01 -1.727380e-01 -2.141831e-01 -2.472782e-01 -2.708527e-01 -2.841969e-01 -2.870550e-01 -2.795926e-01 -2.712825e-01 -2.439979e-01 -2.086929e-01 -1.667408e-01 -1.196635e-01 -6.908842e-02 -1.671173e-02 3.573286e-02 8.650353e-02 1.338807e-01 1.762009e-01 2.118969e-01 2.395465e-01 2.579300e-01 2.660948e-01 2.634254e-01 2.497104e-01 2.252005e-01 1.906455e-01 1.473014e-01 9.689907e-02 4.157100e-02 -1.626141e-02 -7.403060e-02 -1.291812e-01 -1.793258e-01 -2.223812e-01 -2.566714e-01 -2.809914e-01 -2.946291e-01 -2.973531e-01 -2.893728e-01 -2.765006e-01 -2.485411e-01 -2.124483e-01 -1.696277e-01 -1.216283e-01 -7.009992e-02 -1.675761e-02 3.664806e-02 8.835893e-02 1.366375e-01 1.797996e-01 2.162536e-01 2.445484e-01 2.634316e-01 2.719159e-01 2.693517e-01 2.554983e-01 2.305866e-01 1.953614e-01 1.510922e-01 9.954490e-02 4.290771e-02 -1.632489e-02 -7.550194e-02 -1.319827e-01 -1.833022e-01 -2.273145e-01 -2.623026e-01 -2.870421e-01 -3.008235e-01 -3.034348e-01 -2.951167e-01 -2.868566e-01 -2.575505e-01 -2.198909e-01 -1.753467e-01 -1.255201e-01 -7.210458e-02 -1.685167e-02 3.845587e-02 9.202806e-02 1.420930e-01 1.869263e-01 2.248878e-01 2.544696e-01 2.743539e-01 2.834839e-01 2.811407e-01 2.670238e-01 2.413228e-01 2.047702e-01 1.586617e-01 1.048319e-01 4.558080e-02 -1.645017e-02 -7.844132e-02 -1.375797e-01 -1.912431e-01 -2.371607e-01 -2.735323e-01 -2.990974e-01 -3.131528e-01 -3.155275e-01 -3.065263e-01 -3.021800e-01 -2.708644e-01 -2.308782e-01 -1.837837e-01 -1.312604e-01 -7.506419e-02 -1.699796e-02 4.111004e-02 9.742547e-02 1.501275e-01 1.974337e-01 2.376339e-01 2.691358e-01 2.905248e-01 3.006384e-01 2.986525e-01 2.841732e-01 2.573241e-01 2.188150e-01 1.699766e-01 1.127450e-01 4.958731e-02 -1.663221e-02 -8.283713e-02 -1.459516e-01 -2.031144e-01 -2.518654e-01 -2.902814e-01 -3.170504e-01 -3.314836e-01 -3.334764e-01 -3.234339e-01 -3.221913e-01 -2.882208e-01 -2.451816e-01 -1.947571e-01 -1.387245e-01 -7.891735e-02 -1.720177e-02 4.453937e-02 1.044177e-01 1.605525e-01 2.110888e-01 2.542268e-01 2.882647e-01 3.116602e-01 3.231096e-01 3.216452e-01 3.067431e-01 2.784317e-01 2.373824e-01 1.849654e-01 1.232470e-01 5.491711e-02 -1.686006e-02 -8.865917e-02 -1.570466e-01 -2.188368e-01 -