<VTKFile type="RectilinearGrid">
<RectilinearGrid WholeExtent="0 32 0 32 0 32" GhostLevel="0">
<Piece Extent="0 32 0 32 0 32">
<CellData Scalars="p phase" Vectors="vel">
<DataArray type="Float32" Name="p">
-2.612434e-01 -2.431733e-01 -2.163073e-01 -1.817651e-01 -1.408812e-01 -9.515462e-02 -4.620262e-02 4.281586e-03 5.456758e-02 1.029251e-01 1.476623e-01 1.871660e-01 2.199480e-01 2.446948e-01 2.603242e-01 2.660433e-01 2.614066e-01 2.463671e-01 2.213141e-01 1.870899e-01 1.449790e-01 9.666663e-02 4.416386e-02 -1.029424e-02 -6.437075e-02 -1.157575e-01 -1.623017e-01 -2.021166e-01 -2.336678e-01 -2.558302e-01 -2.679147e-01 -2.696667e-01 -2.661158e-01 -2.476135e-01 -2.201791e-01 -1.849602e-01 -1.433180e-01 -9.677559e-02 -4.697202e-02 4.379607e-03 5.553000e-02 1.047300e-01 1.502674e-01 1.905073e-01 2.239367e-01 2.492155e-01 2.652334e-01 2.711698e-01 2.665547e-01 2.513228e-01 2.258550e-01 1.909978e-01 1.480555e-01 9.874808e-02 4.513579e-02 -1.048697e-02 -6.571882e-02 -1.181881e-01 -1.656852e-01 -2.062783e-01 -2.384025e-01 -2.609176e-01 -2.731336e-01 -2.748073e-01 -2.757724e-01 -2.564085e-01 -2.278445e-01 -1.912837e-01 -1.481395e-01 -9.998283e-02 -4.849520e-02 4.571423e-03 5.743093e-02 1.082972e-01 1.554188e-01 1.971175e-01 2.318319e-01 2.581691e-01 2.749624e-01 2.813361e-01 2.767705e-01 2.611630e-01 2.348764e-01 1.987655e-01 1.541726e-01 1.028874e-01 4.706786e-02 -1.087256e-02 -6.840322e-02 -1.230251e-01 -1.724153e-01 -2.145519e-01 -2.478098e-01 -2.710192e-01 -2.834896e-01 -2.850014e-01 -2.900289e-01 -2.693814e-01 -2.391424e-01 -2.005981e-01 -1.552388e-01 -1.047050e-01 -5.073988e-02 4.848636e-03 6.022170e-02 1.135401e-01 1.629960e-01 2.068480e-01 2.434641e-01 2.713730e-01 2.893247e-01 2.963599e-01 2.918836e-01 2.757353e-01 2.482490e-01 2.102888e-01 1.632526e-01 1.090330e-01 4.993464e-02 -1.145054e-02 -7.239725e-02 -1.302150e-01 -1.824108e-01 -2.268291e-01 -2.617556e-01 -2.859787e-01 -2.988097e-01 -3.000662e-01 -3.085909e-01 -2.862513e-01 -2.538187e-01 -2.126876e-01 -1.644484e-01 -1.108304e-01 -5.365529e-02 5.198912e-03 6.382735e-02 1.203245e-01 1.728112e-01 2.194661e-01 2.585662e-01 2.885381e-01 3.080218e-01 3.159470e-01 3.116161e-01 2.947890e-01 2.657567e-01 2.253921e-01 1.751632e-01 1.170974e-01 5.369347e-02 -1.221839e-02 -7.765281e-02 -1.396637e-01 -1.955320e-01 -2.429259e-01 -2.800158e-01 -3.055386e-01 -3.188122e-01 -3.197073e-01 -3.310347e-01 -3.066180e-01 -2.715138e-01 -2.272487e-01 -1.755335e-01 -1.182028e-01 -5.716978e-02 5.606336e-03 6.814504e-02 1.284646e-01 1.846033e-01 2.346460e-01 2.767612e-01 3.092522e-01 3.306245e-01 3.396689e-01 3.355584e-01 3.179490e-01 2.870726e-01 2.438064e-01 1.897000e-01 1.269448e-01 5.827937e-02 -1.316938e-02 -8.409125e-02 -1.512212e-01 -2.115600e-01 -2.625592e-01 -3.022509e-01 -3.293143e-01 -3.430818e-01 -3.434960e-01 -3.567872e-01 -3.299452e-01 -2.917497e-01 -2.438805e-01 -1.881852e-01 -1.266164e-01 -6.118824e-02 6.052139e-03 7.304275e-02 1.377198e-01 1.980316e-01 2.519592e-01 2.975492e-01 3.329637e-01 3.565512e-01 3.669383e-01 3.631414e-01 3.446873e-01 3.117300e-01 2.651432e-01 2.065653e-01 1.383771e-01 6.359887e-02 -1.428981e-02 -9.159185e-02 -1.646627e-01 -2.301717e-01 -2.853175e-01 -3.279754e-01 -3.567645e-01 -3.710430e-01 -3.708459e-01 -3.851077e-01 -3.555468e-01 -3.139201e-01 -2.620775e-01 -2.020156e-01 -1.358132e-01 -6.559018e-02 6.515671e-03 7.835930e-02 1.477931e-01 2.126723e-01 2.708688e-01 3.202981e-01 3.589674e-01 3.850501e-01 3.969861e-01 3.936097e-01 3.742937e-01 3.390932e-01 2.888671e-01 2.253456e-01 1.511180e-01 6.952346e-02 -1.555602e-02 -9.997953e-02 -1.796680e-01 -2.509137e-01 -3.106321e-01 -3.565278e-01 -3.871619e-01 -4.019329e-01 -4.009899e-01 -4.150773e-01 -3.825803e-01 -3.372868e-01 -2.812283e-01 -2.165574e-01 -1.454823e-01 -7.022898e-02 6.975775e-03 8.390624e-02 1.583333e-01 2.280207e-01 2.907298e-01 3.442411e-01 3.863992e-01 4.151893e-01 4.288470e-01 4.260032e-01 4.058534e-01 3.683332e-01 3.142727e-01 2.454912e-01 1.647994e-01 7.588335e-02 -1.693166e-02 -1.090137e-01 -1.958034e-01 -2.731793e-01 -3.377510e-01 -3.870450e-01 -4.195709e-01 -4.347830e-01 -4.329659e-01 -4.456032e-01 -4.100530e-01 -3.609870e-01 -3.006227e-01 -2.312698e-01 -1.552642e-01 -7.493329e-02 7.412309e-03 8.947237e-02 1.689423e-01 2.434993e-01 3.107984e-01 3.684865e-01 4.142438e-01 4.458614e-01 4.613603e-01 4.591528e-01 4.382390e-01 3.984165e-01 3.404712e-01 2.663044e-01 1.789520e-01 8.246322e-02 -1.836642e-02 -1.183813e-01 -2.125104e-01 -2.961947e-01 -3.657256e-01 -4.184512e-01 -4.528387e-01 -4.684147e-01 -4.656168e-01 -4.754412e-01 -4.368454e-01 -3.840547e-01 -3.194704e-01 -2.455538e-01 -1.647604e-01 -7.951140e-02 7.807760e-03 9.483117e-02 1.791876e-01 2.584765e-01 3.302546e-01 3.920424e-01 4.413609e-01 4.758097e-01 4.931935e-01 4.917008e-01 4.701260e-01 4.281154e-01 3.663968e-01 2.869418e-01 1.930055e-01 8.900139e-02 -1.979678e-02 -1.276977e-01 -2.291075e-01 -3.190228e-01 -3.934174e-01 -4.494677e-01 -4.856107e-01 -5.014577e-01 -4.976121e-01 -5.032433e-01 -4.617545e-01 -4.054604e-01 -3.369341e-01 -2.587762e-01 -1.735501e-01 -8.375887e-02 8.148480e-03 9.975113e-02 1.886220e-01 2.722941e-01 3.482376e-01 4.138589e-01 4.665324e-01 5.036781e-01 5.228943e-01 5.221513e-01 5.000392e-01 4.560484e-01 3.908389e-01 3.064380e-01 2.063032e-01 9.519522e-02 -2.114968e-02 -1.365190e-01 -2.448101e-01 -3.405908e-01 -4.195324e-01 -4.786547e-01 -5.163754e-01 -5.323987e-01 -5.274964e-01 -5.276313e-01 -4.835606e-01 -4.241668e-01 -3.521746e-01 -2.703053e-01 -1.812136e-01 -8.746998e-02 8.425390e-03 1.040085e-01 1.968082e-01 2.843037e-01 3.638936e-01 4.328873e-01 4.885321e-01 5.280896e-01 5.489733e-01 5.489551e-01 5.264360e-01 4.807576e-01 4.125085e-01 3.237569e-01 2.181353e-01 1.007149e-01 -2.234865e-02 -1.443675e-01 -2.587746e-01 -3.597490e-01 -4.426922e-01 -5.044884e-01 -5.435468e-01 -5.596634e-01 -5.537693e-01 -5.472956e-01 -5.011124e-01 -4.392010e-01 -3.644089e-01 -2.795533e-01 -1.873603e-01 -9.045191e-02 8.633746e-03 1.074012e-01 2.033469e-01 2.939102e-01 3.764343e-01 4.481529e-01 5.062118e-01 5.477447e-01 5.700137e-01 5.706262e-01 5.478238e-01 5.008200e-01 4.301375e-01 3.378714e-01 2.277931e-01 1.052278e-01 -2.332140e-02 -1.507701e-01 -2.701642e-01 -3.753604e-01 -4.615392e-01 -5.254775e-01 -5.655826e-01 -5.817320e-01 -5.749935e-01 -5.611077e-01 -5.134242e-01 -4.497346e-01 -3.729729e-01 -2.860232e-01 -1.916602e-01 -9.254076e-02 8.772157e-03 1.097626e-01 2.079064e-01 3.006160e-01 3.851978e-01 4.588329e-01 5.185970e-01 5.615336e-01 5.847973e-01 5.858776e-01 5.629006e-01 5.149854e-01 4.426040e-01 3.478667e-01 2.346410e-01 1.084324e-01 -2.400697e-02 -1.553068e-01 -2.782340e-01 -3.864141e-01 -4.748706e-01 -5.403061e-01 -5.811293e-01 -5.972790e-01 -5.899231e-01 -5.682353e-01 -5.197722e-01 -4.551617e-01 -3.773827e-01 -2.893534e-01 -1.938734e-01 -9.361681e-02 8.841025e-03 1.109743e-01 2.102485e-01 3.040629e-01 3.897052e-01 4.643301e-01 5.249772e-01 5.686432e-01 5.924272e-01 5.937570e-01 5.706978e-01 5.223187e-01 4.490642e-01 3.530509e-01 2.381957e-01 1.100974e-01 -2.436132e-02 -1.576605e-01 -2.824209e-01 -3.921467e-01 -4.817803e-01 -5.479861e-01 -5.891744e-01 -6.053168e-01 -5.976344e-01 -5.682353e-01 -5.197722e-01 -4.551617e-01 -3.773827e-01 -2.893534e-01 -1.938734e-01 -9.361681e-02 8.841025e-03 1.109743e-01 2.102485e-01 3.040629e-01 3.897052e-01 4.643301e-01 5.249772e-01 5.686432e-01 5.924272e-01 5.937570e-01 5.706978e-01 5.223187e-01 4.490642e-01 3.530509e-01 2.381957e-01 1.100974e-01 -2.436132e-02 -1.576605e-01 -2.824209e-01 -3.921467e-01 -4.817803e-01 -5.479861e-01 -5.891744e-01 -6.053168e-01 -5.976344e-01 -5.611077e-01 -5.134242e-01 -4.497346e-01 -3.729729e-01 -2.860232e-01 -1.916602e-01 -9.254076e-02 8.772157e-03 1.097626e-01 2.079064e-01 3.006160e-01 3.851978e-01 4.588329e-01 5.185970e-01 5.615336e-01 5.847973e-01 5.858776e-01 5.629006e-01 5.149854e-01 4.426040e-01 3.478667e-01 2.346410e-01 1.084324e-01 -2.400697e-02 -1.553067e-01 -2.782340e-01 -3.864141e-01 -4.748706e-01 -5.403061e-01 -5.811293e-01 -5.972790e-01 -5.899231e-01 -5.472956e-01 -5.011124e-01 -4.392010e-01 -3.644089e-01 -2.795533e-01 -1.873603e-01 -9.045191e-02 8.633746e-03 1.074012e-01 2.033469e-01 2.939102e-01 3.764343e-01 4.481529e-01 5.062118e-01 5.477447e-01 5.700137e-01 5.706262e-01 5.478238e-01 5.008200e-01 4.301375e-01 3.378714e-01 2.277931e-01 1.052278e-01 -2.332140e-02 -1.507701e-01 -2.701642e-01 -3.753604e-01 -4.615392e-01 -5.254775e-01 -5.655826e-01 -5.817320e-01 -5.749935e-01 -5.276313e-01 -4.835606e-01 -4.241668e-01 -3.521746e-01 -2.703053e-01 -1.812136e-01 -8.746998e-02 8.425389e-03 1.040085e-01 1.968082e-01 2.843037e-01 3.638936e-01 4.328873e-01 4.885321e-01 5.280896e-01 5.489733e-01 5.489551e-01 5.264360e-01 4.807576e-01 4.125085e-01 3.237569e-01 2.181353e-01 1.007149e-01 -2.234865e-02 -1.443675e-01 -2.587746e-01 -3.597490e-01 -4.426922e-01 -5.044884e-01 -5.435468e-01 -5.596634e-01 -5.537693e-01 -5.032433e-01 -4.617545e-01 -4.054604e-01 -3.369341e-01 -2.587762e-01 -1.735501e-01 -8.375887e-02 8.148481e-03 9.975113e-02 1.886220e-01 2.722941e-01 3.482376e-01 4.138589e-01 4.665324e-01 5.036781e-01 5.228943e-01 5.221513e-01 5.000392e-01 4.560484e-01 3.908389e-01 3.064380e-01 2.063032e-01 9.519522e-02 -2.114968e-02 -1.365190e-01 -2.448101e-01 -3.405908e-01 -4.195324e-01 -4.786547e-01 -5.163754e-01 -5.323987e-01 -5.274964e-01 -4.754412e-01 -4.368454e-01 -3.840547e-01 -3.194704e-01 -2.455538e-01 -1.647604e-01 -7.951140e-02 7.807759e-03 9.483117e-02 1.791876e-01 2.584765e-01 3.302546e-01 3.920424e-01 4.413609e-01 4.758097e-01 4.931935e-01 4.917008e-01 4.701260e-01 4.281154e-01 3.663968e-01 2.869418e-01 1.930055e-01 8.900139e-02 -1.979678e-02 -1.276977e-01 -2.291075e-01 -3.190228e-01 -3.934174e-01 -4.494677e-01 -4.856107e-01 -5.014577e-01 -4.976121e-01 -4.456032e-01 -4.100530e-01 -3.609870e-01 -3.006226e-01 -2.312698e-01 -1.552642e-01 -7.493329e-02 7.412309e-03 8.947237e-02 1.689423e-01 2.434993e-01 3.107984e-01 3.684865e-01 4.142438e-01 4.458614e-01 4.613603e-01 4.591528e-01 4.382390e-01 3.984165e-01 3.404712e-01 2.663044e-01 1.789520e-01 8.246322e-02 -1.836642e-02 -1.183813e-01 -2.125104e-01 -2.961947e-01 -3.657256e-01 -4.184512e-01 -4.528387e-01 -4.684147e-01 -4.656168e-01 -4.150773e-01 -3.825803e-01 -3.372868e-01 -2.812283e-01 -2.165574e-01 -1.454823e-01 -7.022898e-02 6.975775e-03 8.390624e-02 1.583333e-01 2.280207e-01 2.907298e-01 3.442411e-01 3.863992e-01 4.151893e-01 4.288470e-01 4.260032e-01 4.058534e-01 3.683332e-01 3.142727e-01 2.454912e-01 1.647994e-01 7.588335e-02 -1.693166e-02 -1.090137e-01 -1.958034e-01 -2.731793e-01 -3.377510e-01 -3.870450e-01 -4.195709e-01 -4.347830e-01 -4.329659e-01 -3.851077e-01 -3.555468e-01 -3.139201e-01 -2.620775e-01 -2.020156e-01 -1.358132e-01 -6.559018e-02 6.515671e-03 7.835930e-02 1.477931e-01 2.126723e-01 2.708688e-01 3.202980e-01 3.589674e-01 3.850501e-01 3.969861e-01 3.936097e-01 3.742937e-01 3.390932e-01 2.888671e-01 2.253456e-01 1.511180e-01 6.952346e-02 -1.555602e-02 -9.997953e-02 -1.796680e-01 -2.509137e-01 -3.106321e-01 -3.565278e-01 -3.871619e-01 -4.019329e-01 -4.009899e-01 -3.567872e-01 -3.299452e-01 -2.917497e-01 -2.438805e-01 -1.881852e-01 -1.266164e-01 -6.118824e-02 6.052138e-03 7.304275e-02 1.377198e-01 1.980316e-01 2.519592e-01 2.975492e-01 3.329637e-01 3.565512e-01 3.669383e-01 3.631414e-01 3.446873e-01 3.117300e-01 2.651432e-01 2.065653e-01 1.383771e-01 6.359887e-02 -1.428982e-02 -9.159185e-02 -1.646627e-01 -2.301717e-01 -2.853175e-01 -3.279754e-01 -3.567645e-01 -3.710430e-01 -3.708459e-01 -3.310347e-01 -3.066180e-01 -2.715138e-01 -2.272487e-01 -1.755335e-01 -1.182028e-01 -5.716978e-02 5.606336e-03 6.814504e-02 1.284646e-01 1.846033e-01 2.346460e-01 2.767612e-01 3.092522e-01 3.306245e-01 3.396689e-01 3.355584e-01 3.179490e-01 2.870726e-01 2.438064e-01 1.897000e-01 1.269448e-01 5.827937e-02 -1.316938e-02 -8.409125e-02 -1.512212e-01 -2.115600e-01 -2.625592e-01 -3.022509e-01 -3.293143e-01 -3.430818e-01 -3.434960e-01 -3.085909e-01 -2.862513e-01 -2.538187e-01 -2.126876e-01 -1.644484e-01 -1.108304e-01 -5.365529e-02 5.198912e-03 6.382735e-02 1.203245e-01 1.728112e-01 2.194661e-01 2.585662e-01 2.885381e-01 3.080218e-01 3.159470e-01 3.116161e-01 2.947890e-01 2.657567e-01 2.253921e-01 1.751632e-01 1.170974e-01 5.369347e-02 -1.221839e-02 -7.765281e-02 -1.396637e-01 -1.955320e-01 -2.429259e-01 -2.800158e-01 -3.055386e-01 -3.188122e-01 -3.197073e-01 -2.900289e-01 -2.693814e-01 -2.391424e-01 -2.005980e-01 -1.552388e-01 -1.047050e-01 -5.073988e-02 4.848637e-03 6.022169e-02 1.135401e-01 1.629960e-01 2.068480e-01 2.434641e-01 2.713730e-01 2.893247e-01 2.963599e-01 2.918836e-01 2.757353e-01 2.482490e-01 2.102888e-01 1.632526e-01 1.090330e-01 4.993464e-02 -1.145054e-02 -7.239725e-02 -1.302150e-01 -1.824108e-01 -2.268291e-01 -2.617556e-01 -2.859787e-01 -2.988097e-01 -3.000662e-01 -2.757724e-01 -2.564085e-01 -2.278445e-01 -1.912837e-01 -1.481395e-01 -9.998283e-02 -4.849520e-02 4.571422e-03 5.743093e-02 1.082972e-01 1.554188e-01 1.971175e-01 2.318319e-01 2.581691e-01 2.749624e-01 2.813361e-01 2.767705e-01 2.611630e-01 2.348764e-01 1.987655e-01 1.541726e-01 1.028874e-01 4.706786e-02 -1.087257e-02 -6.840322e-02 -1.230251e-01 -1.724153e-01 -2.145519e-01 -2.478098e-01 -2.710192e-01 -2.834896e-01 -2.850014e-01 -2.661158e-01 -2.476135e-01 -2.201791e-01 -1.849602e-01 -1.433180e-01 -9.677559e-02 -4.697202e-02 4.379607e-03 5.553000e-02 1.047300e-01 1.502674e-01 1.905073e-01 2.239367e-01 2.492155e-01 2.652334e-01 2.711698e-01 2.665547e-01 2.513228e-01 2.258550e-01 1.909978e-01 1.480555e-01 9.874808e-02 4.513579e-02 -1.048697e-02 -6.571882e-02 -1.181881e-01 -1.656852e-01 -2.062783e-01 -2.384025e-01 -2.609176e-01 -2.731336e-01 -2.748073e-01 -2.612434e-01 -2.431733e-01 -2.163073e-01 -1.817651e-01 -1.408812e-01 -9.515462e-02 -4.620262e-02 4.281585e-03 5.456758e-02 1.029251e-01 1.476623e-01 1.871660e-01 2.199480e-01 2.446948e-01 2.603242e-01 2.660432e-01 2.614066e-01 2.463671e-01 2.213141e-01 1.870899e-01 1.449790e-01 9.666663e-02 4.416386e-02 -1.029424e-02 -6.437075e-02 -1.157575e-01 -1.623017e-01 -2.021166e-01 -2.336678e-01 -2.558302e-01 -2.679147e-01 -2.696667e-01 -2.661158e-01 -2.476135e-01 -2.201791e-01 -1.849602e-01 -1.433180e-01 -9.677559e-02 -4.697202e-02 4.379607e-03 5.553000e-02 1.047300e-01 1.502674e-01 1.905073e-01 2.239367e-01 2.492155e-01 2.652334e-01 2.711698e-01 2.665547e-01 2.513228e-01 2.258550e-01 1.909978e-01 1.480555e-01 9.874808e-02 4.513579e-02 -1.048697e-02 -6.571882e-02 -1.181881e-01 -1.656852e-01 -2.062783e-01 -2.384025e-01 -2.609176e-01 -2.731336e-01 -2.748073e-01 -2.712447e-01 -2.522785e-01 -2.242399e-01 -1.883063e-01 -1.458667e-01 -9.846920e-02 -4.777501e-02 4.482857e-03 5.653625e-02 1.066171e-01 1.529932e-01 1.940070e-01 2.281202e-01 2.539645e-01 2.703996e-01 2.765748e-01 2.719929e-01 2.565677e-01 2.306693e-01 1.951476e-01 1.513267e-01 1.009635e-01 4.617085e-02 -1.069258e-02 -6.715520e-02 -1.207762e-01 -1.692844e-01 -2.106997e-01 -2.434247e-01 -2.663042e-01 -2.786488e-01 -2.802289e-01 -2.814176e-01 -2.615258e-01 -2.322850e-01 -1.949325e-01 -1.509123e-01 -1.018218e-01 -4.936537e-02 4.685017e-03 5.852474e-02 1.103490e-01 1.583861e-01 2.009346e-01 2.364062e-01 2.633767e-01 2.806458e-01 2.873027e-01 2.827947e-01 2.669930e-01 2.402452e-01 2.034067e-01 1.578399e-01 1.053755e-01 4.823131e-02 -1.110464e-02 -7.001976e-02 -1.259342e-01 -1.764537e-01 -2.195010e-01 -2.534152e-01 -2.770118e-01 -2.896038e-01 -2.909902e-01 -2.964568e-01 -2.751820e-01 -2.441552e-01 -2.047022e-01 -1.583481e-01 -1.067619e-01 -5.171086e-02 4.977506e-03 6.144630e-02 1.158383e-01 1.663253e-01 2.111419e-01 2.486266e-01 2.772729e-01 2.957911e-01 3.031791e-01 2.988004e-01 2.824593e-01 2.544671e-01 2.156844e-01 1.675293e-01 1.119411e-01 5.129577e-02 -1.172402e-02 -7.429245e-02 -1.336198e-01 -1.871262e-01 -2.325898e-01 -2.682558e-01 -2.928983e-01 -3.058375e-01 -3.069175e-01 -3.160742e-01 -2.929700e-01 -2.595975e-01 -2.173993e-01 -1.680056e-01 -1.131772e-01 -5.476035e-02 5.347573e-03 6.522495e-02 1.229493e-01 1.766215e-01 2.243951e-01 2.645147e-01 2.953664e-01 3.155423e-01 3.239187e-01 3.197443e-01 3.027311e-01 2.731365e-01 2.318230e-01 1.802783e-01 1.205843e-01 5.532699e-02 -1.254996e-02 -7.993413e-02 -1.437539e-01 -2.011811e-01 -2.498028e-01 -2.877424e-01 -3.137240e-01 -3.270822e-01 -3.277263e-01 -3.398498e-01 -3.144895e-01 -2.782504e-01 -2.327173e-01 -1.796470e-01 -1.209089e-01 -5.844123e-02 5.778747e-03 6.975561e-02 1.314926e-01 1.890091e-01 2.403639e-01 2.836899e-01 3.172433e-01 3.394714e-01 3.490983e-01 3.452267e-01 3.274474e-01 2.959435e-01 2.515716e-01 1.958993e-01 1.311820e-01 6.026606e-02 -1.357754e-02 -8.687582e-02 -1.562026e-01 -2.184200e-01 -2.708786e-01 -3.115559e-01 -3.391213e-01 -3.529355e-01 -3.529961e-01 -3.672067e-01 -3.391976e-01 -2.996278e-01 -2.502472e-01 -1.929567e-01 -1.297467e-01 -6.265630e-02 6.251372e-03 7.490252e-02 1.412212e-01 2.031387e-01 2.586099e-01 3.056420e-01 3.423428e-01 3.669903e-01 3.781274e-01 3.746797e-01 3.560863e-01 3.224318e-01 2.745547e-01 2.141079e-01 1.435465e-01 6.602495e-02 -1.479433e-02 -9.500482e-02 -1.707547e-01 -2.385362e-01 -2.954226e-01 -3.392252e-01 -3.685590e-01 -3.828267e-01 -3.821405e-01 -3.973870e-01 -3.663903e-01 -3.231061e-01 -2.694683e-01 -2.075347e-01 -1.394244e-01 -6.728147e-02 6.743707e-03 8.049857e-02 1.518277e-01 2.185722e-01 2.785782e-01 3.297186e-01 3.699384e-01 3.973262e-01 4.102185e-01 4.073335e-01 3.879282e-01 3.519616e-01 3.002375e-01 2.344939e-01 1.574060e-01 7.247806e-02 -1.617655e-02 -1.041492e-01 -1.870953e-01 -2.610820e-01 -3.228695e-01 -3.700886e-01 -4.013049e-01 -4.159832e-01 -4.143782e-01 -4.294368e-01 -3.951917e-01 -3.479174e-01 -2.897444e-01 -2.228946e-01 -1.496187e-01 -7.216444e-02 7.233213e-03 8.634699e-02 1.629455e-01 2.347828e-01 2.995957e-01 3.551196e-01 3.991283e-01 4.295073e-01 4.443659e-01 4.421896e-01 4.220241e-01 3.836757e-01 3.278935e-01 2.564941e-01 1.723851e-01 7.945377e-02 -1.768562e-02 -1.140624e-01 -2.047807e-01 -2.854364e-01 -3.524480e-01 -4.032582e-01 -4.363935e-01 -4.514028e-01 -4.487119e-01 -4.622036e-01 -4.245561e-01 -3.731536e-01 -3.103290e-01 -2.384689e-01 -1.599525e-01 -7.712590e-02 7.698306e-03 9.222555e-02 1.741561e-01 2.511628e-01 3.208789e-01 3.809043e-01 4.288402e-01 4.623622e-01 4.793404e-01 4.780087e-01 4.571786e-01 4.164787e-01 3.565817e-01 2.793711e-01 1.879894e-01 8.672680e-02 -1.926600e-02 -1.244119e-01 -2.232200e-01 -3.107813e-01 -3.831557e-01 -4.375975e-01 -4.726075e-01 -4.878412e-01 -4.839205e-01 -4.943558e-01 -4.532888e-01 -3.977871e-01 -3.303834e-01 -2.536228e-01 -1.700045e-01 -8.196358e-02 8.119997e-03 9.789439e-02 1.850013e-01 2.670425e-01 3.415567e-01 4.060162e-01 4.578557e-01 4.945438e-01 5.137091e-01 5.133262e-01 4.919587e-01 4.490390e-01 3.851442e-01 3.022079e-01 2.035994e-01 9.401421e-02 -2.084615e-02 -1.347764e-01 -2.416692e-01 -3.360962e-01 -4.137558e-01 -4.717213e-01 -5.084836e-01 -5.238230e-01 -5.185756e-01 -5.244293e-01 -4.800900e-01 -4.207102e-01 -3.490103e-01 -2.676806e-01 -1.793269e-01 -8.646032e-02 8.483463e-03 1.031068e-01 1.950045e-01 2.817190e-01 3.607069e-01 4.293267e-01 4.848601e-01 5.245815e-01 5.458883e-01 5.465021e-01 5.247386e-01 4.798269e-01 4.122346e-01 3.239272e-01 2.184806e-01 1.009776e-01 -2.234287e-02 -1.446565e-01 -2.592480e-01 -3.601809e-01 -4.428062e-01 -5.040321e-01 -5.423533e-01 -5.576866e-01 -5.510883e-01 -5.509061e-01 -5.036253e-01 -4.407954e-01 -3.653027e-01 -2.799622e-01 -1.874691e-01 -9.039596e-02 8.778757e-03 1.076232e-01 2.036967e-01 2.944954e-01 3.774089e-01 4.496997e-01 5.085173e-01 5.509653e-01 5.742339e-01 5.758138e-01 5.537898e-01 5.071963e-01 4.363878e-01 3.433440e-01 2.318170e-01 1.072358e-01 -2.366934e-02 -1.535024e-01 -2.749855e-01 -3.817162e-01 -4.687324e-01 -5.328002e-01 -5.724290e-01 -5.876710e-01 -5.797929e-01 -5.723232e-01 -5.226205e-01 -4.569749e-01 -3.784068e-01 -2.898304e-01 -1.940097e-01 -9.356300e-02 9.000773e-03 1.112262e-01 2.106481e-01 3.047288e-01 3.908075e-01 4.660719e-01 5.275669e-01 5.722577e-01 5.971651e-01 5.995877e-01 5.774152e-01 5.295138e-01 4.561341e-01 3.592575e-01 2.427728e-01 1.123920e-01 -2.474451e-02 -1.607585e-01 -2.878970e-01 -3.993667e-01 -4.899485e-01 -5.562959e-01 -5.969375e-01 -6.120454e-01 -6.030686e-01 -5.874049e-01 -5.359734e-01 -4.683314e-01 -3.875937e-01 -2.967432e-01 -1.985906e-01 -9.578403e-02 9.148103e-03 1.137361e-01 2.154996e-01 3.118793e-01 4.001809e-01 4.775409e-01 5.409317e-01 5.872214e-01 6.133104e-01 6.163595e-01 5.941167e-01 5.453235e-01 4.701514e-01 3.705764e-01 2.505806e-01 1.160756e-01 -2.550151e-02 -1.659221e-01 -2.970877e-01 -4.119216e-01 -5.050219e-01 -5.729644e-01 -6.142948e-01 -6.292756e-01 -6.194902e-01 -5.952003e-01 -5.428676e-01 -4.741892e-01 -3.923288e-01 -3.003044e-01 -2.009501e-01 -9.692900e-02 9.221345e-03 1.150245e-01 2.179930e-01 3.155570e-01 4.050054e-01 4.834490e-01 5.478229e-01 5.949453e-01 6.216539e-01 6.250375e-01 6.027694e-01 5.535252e-01 4.774327e-01 3.764635e-01 2.546464e-01 1.179968e-01 -2.589253e-02 -1.686084e-01 -3.018701e-01 -4.184518e-01 -5.128565e-01 -5.816203e-01 -6.232990e-01 -6.382034e-01 -6.279885e-01 -5.952003e-01 -5.428676e-01 -4.741892e-01 -3.923288e-01 -3.003044e-01 -2.009501e-01 -9.692900e-02 9.221344e-03 1.150245e-01 2.179930e-01 3.155570e-01 4.050054e-01 4.834490e-01 5.478229e-01 5.949453e-01 6.216539e-01 6.250375e-01 6.027694e-01 5.535252e-01 4.774327e-01 3.764635e-01 2.546464e-01 1.179968e-01 -2.589253e-02 -1.686084e-01 -3.018701e-01 -4.184518e-01 -5.128565e-01 -5.816203e-01 -6.232990e-01 -6.382034e-01 -6.279885e-01 -5.874049e-01 -5.359734e-01 -4.683314e-01 -3.875937e-01 -2.967432e-01 -1.985906e-01 -9.578403e-02 9.148103e-03 1.137361e-01 2.154996e-01 3.118793e-01 4.001809e-01 4.775409e-01 5.409317e-01 5.872214e-01 6.133104e-01 6.163595e-01 5.941167e-01 5.453235e-01 4.701514e-01 3.705764e-01 2.505806e-01 1.160756e-01 -2.550151e-02 -1.659221e-01 -2.970877e-01 -4.119216e-01 -5.050219e-01 -5.729644e-01 -6.142948e-01 -6.292756e-01 -6.194902e-01 -5.723232e-01 -5.226205e-01 -4.569749e-01 -3.784068e-01 -2.898304e-01 -1.940097e-01 -9.356300e-02 9.000773e-03 1.112262e-01 2.106481e-01 3.047288e-01 3.908075e-01 4.660719e-01 5.275669e-01 5.722577e-01 5.971651e-01 5.995877e-01 5.774152e-01 5.295138e-01 4.561341e-01 3.592575e-01 2.427728e-01 1.123920e-01 -2.474452e-02 -1.607585e-01 -2.878970e-01 -3.993667e-01 -4.899485e-01 -5.562959e-01 -5.969375e-01 -6.120454e-01 -6.030686e-01 -5.509061e-01 -5.036253e-01 -4.407954e-01 -3.653027e-01 -2.799622e-01 -1.874691e-01 -9.039596e-02 8.778757e-03 1.076232e-01 2.036968e-01 2.944954e-01 3.774089e-01 4.496997e-01 5.085173e-01 5.509653e-01 5.742339e-01 5.758138e-01 5.537898e-01 5.071963e-01 4.363878e-01 3.433440e-01 2.318170e-01 1.072358e-01 -2.366934e-02 -1.535024e-01 -2.749855e-01 -3.817162e-01 -4.687324e-01 -5.328002e-01 -5.724290e-01 -5.876710e-01 -5.797929e-01 -5.244293e-01 -4.800900e-01 -4.207102e-01 -3.490103e-01 -2.676806e-01 -1.793269e-01 -8.646032e-02 8.483463e-03 1.031068e-01 1.950045e-01 2.817190e-01 3.607069e-01 4.293267e-01 4.848601e-01 5.245815e-01 5.458883e-01 5.465021e-01 5.247386e-01 4.798269e-01 4.122346e-01 3.239272e-01 2.184806e-01 1.009776e-01 -2.234287e-02 -1.446565e-01 -2.592480e-01 -3.601809e-01 -4.428062e-01 -5.040321e-01 -5.423533e-01 -5.576866e-01 -5.510883e-01 -4.943558e-01 -4.532888e-01 -3.977871e-01 -3.303834e-01 -2.536228e-01 -1.700045e-01 -8.196359e-02 8.119997e-03 9.789439e-02 1.850013e-01 2.670425e-01 3.415567e-01 4.060162e-01 4.578557e-01 4.945438e-01 5.137091e-01 5.133262e-01 4.919587e-01 4.490390e-01 3.851442e-01 3.022079e-01 2.035994e-01 9.401421e-02 -2.084615e-02 -1.347764e-01 -2.416692e-01 -3.360962e-01 -4.137558e-01 -4.717213e-01 -5.084836e-01 -5.238230e-01 -5.185756e-01 -4.622036e-01 -4.245561e-01 -3.731536e-01 -3.103290e-01 -2.384689e-01 -1.599525e-01 -7.712590e-02 7.698306e-03 9.222555e-02 1.741561e-01 2.511628e-01 3.208789e-01 3.809043e-01 4.288402e-01 4.623622e-01 4.793404e-01 4.780087e-01 4.571786e-01 4.164787e-01 3.565817e-01 2.793711e-01 1.879894e-01 8.672680e-02 -1.926600e-02 -1.244119e-01 -2.232200e-01 -3.107813e-01 -3.831557e-01 -4.375975e-01 -4.726075e-01 -4.878412e-01 -4.839205e-01 -4.294368e-01 -3.951917e-01 -3.479174e-01 -2.897444e-01 -2.228946e-01 -1.496187e-01 -7.216444e-02 7.233213e-03 8.634699e-02 1.629455e-01 2.347828e-01 2.995957e-01 3.551196e-01 3.991283e-01 4.295073e-01 4.443659e-01 4.421896e-01 4.220241e-01 3.836757e-01 3.278935e-01 2.564941e-01 1.723851e-01 7.945377e-02 -1.768562e-02 -1.140624e-01 -2.047807e-01 -2.854364e-01 -3.524480e-01 -4.032582e-01 -4.363935e-01 -4.514028e-01 -4.487119e-01 -3.973870e-01 -3.663903e-01 -3.231061e-01 -2.694683e-01 -2.075347e-01 -1.394244e-01 -6.728147e-02 6.743707e-03 8.049857e-02 1.518277e-01 2.185722e-01 2.785782e-01 3.297186e-01 3.699384e-01 3.973262e-01 4.102185e-01 4.073335e-01 3.879282e-01 3.519616e-01 3.002375e-01 2.344939e-01 1.574060e-01 7.247806e-02 -1.617655e-02 -1.041492e-01 -1.870953e-01 -2.610820e-01 -3.228695e-01 -3.700886e-01 -4.013049e-01 -4.159832e-01 -4.143782e-01 -3.672067e-01 -3.391976e-01 -2.996278e-01 -2.502472e-01 -1.929567e-01 -1.297467e-01 -6.265630e-02 6.251372e-03 7.490252e-02 1.412212e-01 2.031387e-01 2.586099e-01 3.056420e-01 3.423428e-01 3.669903e-01 3.781274e-01 3.746797e-01 3.560863e-01 3.224318e-01 2.745547e-01 2.141079e-01 1.435465e-01 6.602495e-02 -1.479433e-02 -9.500482e-02 -1.707547e-01 -2.385362e-01 -2.954226e-01 -3.392252e-01 -3.685590e-01 -3.828267e-01 -3.821405e-01 -3.398498e-01 -3.144895e-01 -2.782504e-01 -2.327173e-01 -1.796470e-01 -1.209089e-01 -5.844123e-02 5.778746e-03 6.975561e-02 1.314926e-01 1.890091e-01 2.403639e-01 2.836899e-01 3.172433e-01 3.394714e-01 3.490983e-01 3.452267e-01 3.274474e-01 2.959435e-01 2.515716e-01 1.958993e-01 1.311820e-01 6.026606e-02 -1.357754e-02 -8.687582e-02 -1.562026e-01 -2.184200e-01 -2.708786e-01 -3.115559e-01 -3.391213e-01 -3.529355e-01 -3.529961e-01 -3.160742e-01 -2.929700e-01 -2.595975e-01 -2.173993e-01 -1.680056e-01 -1.131772e-01 -5.476035e-02 5.347574e-03 6.522495e-02 1.229493e-01 1.766215e-01 2.243951e-01 2.645147e-01 2.953664e-01 3.155423e-01 3.239187e-01 3.197443e-01 3.027311e-01 2.731365e-01 2.318230e-01 1.802783e-01 1.205843e-01 5.532699e-02 -1.254995e-02 -7.993413e-02 -1.437539e-01 -2.011811e-01 -2.498028e-01 -2.877424e-01 -3.137240e-01 -3.270822e-01 -3.277263e-01 -2.964568e-01 -2.751820e-01 -2.441552e-01 -2.047022e-01 -1.583481e-01 -1.067619e-01 -5.171086e-02 4.977506e-03 6.144630e-02 1.158383e-01 1.663253e-01 2.111419e-01 2.486266e-01 2.772729e-01 2.957911e-01 3.031791e-01 2.988004e-01 2.824593e-01 2.544671e-01 2.156844e-01 1.675293e-01 1.119411e-01 5.129577e-02 -1.172402e-02 -7.429245e-02 -1.336198e-01 -1.871262e-01 -2.325898e-01 -2.682558e-01 -2.928983e-01 -3.058375e-01 -3.069175e-01 -2.814176e-01 -2.615258e-01 -2.322850e-01 -1.949325e-01 -1.509123e-01 -1.018218e-01 -4.936537e-02 4.685017e-03 5.852474e-02 1.103490e-01 1.583861e-01 2.009346e-01 2.364062e-01 2.633767e-01 2.806458e-01 2.873027e-01 2.827947e-01 2.669930e-01 2.402452e-01 2.034067e-01 1.578399e-01 1.053755e-01 4.823131e-02 -1.110464e-02 -7.001976e-02 -1.259342e-01 -1.764537e-01 -2.195010e-01 -2.534152e-01 -2.770118e-01 -2.896038e-01 -2.909902e-01 -2.712447e-01 -2.522785e-01 -2.242399e-01 -1.883063e-01 -1.458667e-01 -9.846920e-02 -4.777501e-02 4.482856e-03 5.653625e-02 1.066171e-01 1.529932e-01 1.940070e-01 2.281202e-01 2.539645e-01 2.703996e-01 2.765748e-01 2.719929e-01 2.565677e-01 2.306693e-01 1.951476e-01 1.513267e-01 1.009635e-01 4.617085e-02 -1.069258e-02 -6.715520e-02 -1.207762e-01 -1.692844e-01 -2.106997e-01 -2.434247e-01 -2.663042e-01 -2.786488e-01 -2.802289e-01 -2.661158e-01 -2.476135e-01 -2.201791e-01 -1.849602e-01 -1.433180e-01 -9.677559e-02 -4.697202e-02 4.379607e-03 5.553000e-02 1.047300e-01 1.502674e-01 1.905073e-01 2.239367e-01 2.492155e-01 2.652334e-01 2.711698e-01 2.665547e-01 2.513228e-01 2.258550e-01 1.909978e-01 1.480555e-01 9.874808e-02 4.513579e-02 -1.048697e-02 -6.571882e-02 -1.181881e-01 -1.656852e-01 -2.062783e-01 -2.384025e-01 -2.609176e-01 -2.731336e-01 -2.748073e-01 -2.757724e-01 -2.564085e-01 -2.278445e-01 -1.912837e-01 -1.481395e-01 -9.998283e-02 -4.849520e-02 4.571423e-03 5.743093e-02 1.082972e-01 1.554188e-01 1.971175e-01 2.318319e-01 2.581691e-01 2.749624e-01 2.813361e-01 2.767705e-01 2.611630e-01 2.348764e-01 1.987655e-01 1.541726e-01 1.028874e-01 4.706786e-02 -1.087256e-02 -6.840322e-02 -1.230251e-01 -1.724153e-01 -2.145519e-01 -2.478098e-01 -2.710192e-01 -2.834896e-01 -2.850014e-01 -2.814176e-01 -2.615258e-01 -2.322850e-01 -1.949325e-01 -1.509123e-01 -1.018218e-01 -4.936537e-02 4.685017e-03 5.852474e-02 1.103490e-01 1.583861e-01 2.009346e-01 2.364062e-01 2.633767e-01 2.806458e-01 2.873027e-01 2.827947e-01 2.669930e-01 2.402452e-01 2.034067e-01 1.578399e-01 1.053755e-01 4.823131e-02 -1.110464e-02 -7.001976e-02 -1.259342e-01 -1.764537e-01 -2.195010e-01 -2.534152e-01 -2.770118e-01 -2.896038e-01 -2.909902e-01 -2.926317e-01 -2.716830e-01 -2.410928e-01 -2.021660e-01 -1.564070e-01 -1.054655e-01 -5.109031e-02 4.907713e-03 6.068810e-02 1.144101e-01 1.642626e-01 2.084986e-01 2.454766e-01 2.737112e-01 2.919342e-01 2.991642e-01 2.947821e-01 2.786045e-01 2.509470e-01 2.126649e-01 1.651597e-01 1.103430e-01 5.055335e-02 -1.157121e-02 -7.325253e-02 -1.317477e-01 -1.845184e-01 -2.293767e-01 -2.645912e-01 -2.889487e-01 -3.017715e-01 -3.028975e-01 -3.092510e-01 -2.867161e-01 -2.541138e-01 -2.128497e-01 -1.645174e-01 -1.108424e-01 -5.363777e-02 5.230466e-03 6.387118e-02 1.203925e-01 1.729271e-01 2.196625e-01 2.588793e-01 2.890015e-01 3.086594e-01 3.167650e-01 3.125968e-01 2.958866e-01 2.668978e-01 2.264811e-01 1.760935e-01 1.177671e-01 5.402177e-02 -1.227612e-02 -7.809656e-02 -1.404482e-01 -1.965750e-01 -2.441222e-01 -2.812546e-01 -3.067197e-01 -3.198582e-01 -3.205697e-01 -3.310037e-01 -3.063566e-01 -2.710988e-01 -2.267682e-01 -1.750741e-01 -1.178389e-01 -5.695621e-02 5.639846e-03 6.799595e-02 1.281576e-01 1.841879e-01 2.341915e-01 2.763494e-01 3.089676e-01 3.305418e-01 3.398408e-01 3.360028e-01 3.186404e-01 2.879399e-01 2.447387e-01 1.905616e-01 1.275985e-01 5.861215e-02 -1.322254e-02 -8.453323e-02 -1.519914e-01 -2.125467e-01 -2.636221e-01 -3.032481e-01 -3.301264e-01 -3.436293e-01 