<VTKFile type="RectilinearGrid">
<RectilinearGrid WholeExtent="0 32 0 32 0 32" GhostLevel="0">
<Piece Extent="0 32 0 32 0 32">
<CellData Scalars="p phase" Vectors="vel">
<DataArray type="Float32" Name="p">
-2.523368e-01 -2.404036e-01 -2.196265e-01 -1.909336e-01 -1.554881e-01 -1.146370e-01 -6.986336e-02 -2.274232e-02 2.509805e-02 7.201373e-02 1.163807e-01 1.566321e-01 1.912983e-01 2.190512e-01 2.387526e-01 2.495070e-01 2.507142e-01 2.421193e-01 2.238543e-01 1.964647e-01 1.609146e-01 1.185659e-01 7.112891e-02 2.058455e-02 -3.091727e-02 -8.117415e-02 -1.280528e-01 -1.696041e-01 -2.041612e-01 -2.304135e-01 -2.474521e-01 -2.547866e-01 -2.570816e-01 -2.448282e-01 -2.235867e-01 -1.943116e-01 -1.581920e-01 -1.165990e-01 -7.103731e-02 -2.310206e-02 2.556030e-02 7.328780e-02 1.184379e-01 1.594236e-01 1.947534e-01 2.230746e-01 2.432234e-01 2.542775e-01 2.556119e-01 2.469511e-01 2.284138e-01 2.005427e-01 1.643122e-01 1.211090e-01 7.268218e-02 2.106313e-02 -3.153990e-02 -8.286373e-02 -1.307175e-01 -1.731028e-01 -2.083159e-01 -2.350232e-01 -2.523073e-01 -2.596821e-01 -2.664862e-01 -2.535929e-01 -2.314272e-01 -2.009962e-01 -1.635406e-01 -1.204788e-01 -7.335843e-02 -2.381334e-02 2.647409e-02 7.580681e-02 1.225061e-01 1.649459e-01 2.015910e-01 2.310410e-01 2.520803e-01 2.637339e-01 2.653265e-01 2.565409e-01 2.374685e-01 2.086456e-01 1.710664e-01 1.261664e-01 7.577185e-02 2.201511e-02 -3.277877e-02 -8.622478e-02 -1.360168e-01 -1.800580e-01 -2.165709e-01 -2.441771e-01 -2.619428e-01 -2.693913e-01 -2.803728e-01 -2.665223e-01 -2.429828e-01 -2.108408e-01 -1.714125e-01 -1.261862e-01 -7.677191e-02 -2.485931e-02 2.781747e-02 7.951108e-02 1.284907e-01 1.730737e-01 2.116616e-01 2.427835e-01 2.651472e-01 2.776987e-01 2.796874e-01 2.707319e-01 2.508809e-01 2.206591e-01 1.810882e-01 1.336751e-01 8.036078e-02 2.342902e-02 -3.461974e-02 -9.121735e-02 -1.438845e-01 -1.903772e-01 -2.288087e-01 -2.577348e-01 -2.761995e-01 -2.837424e-01 -2.984563e-01 -2.833369e-01 -2.579929e-01 -2.236148e-01 -1.816181e-01 -1.335808e-01 -8.119251e-02 -2.621380e-02 2.955643e-02 8.430788e-02 1.362444e-01 1.836116e-01 2.247303e-01 2.580383e-01 2.821435e-01 2.958874e-01 2.984181e-01 2.892671e-01 2.684230e-01 2.363911e-01 1.942260e-01 1.435266e-01 8.638483e-02 2.528511e-02 -3.703816e-02 -9.777233e-02 -1.542073e-01 -2.039042e-01 -2.448326e-01 -2.754641e-01 -2.948173e-01 -3.024568e-01 -3.203247e-01 -3.036375e-01 -2.760876e-01 -2.389938e-01 -1.938916e-01 -1.424664e-01 -8.650175e-02 -2.784045e-02 3.164381e-02 9.006841e-02 1.455618e-01 1.962860e-01 2.404662e-01 2.764313e-01 3.026677e-01 3.178882e-01 3.211141e-01 3.117657e-01 2.897523e-01 2.555494e-01 2.102466e-01 1.555525e-01 9.374342e-02 2.755236e-02 -3.999502e-02 -1.057811e-01 -1.668087e-01 -2.203979e-01 -2.643432e-01 -2.970168e-01 -3.174110e-01 -3.251276e-01 -3.454185e-01 -3.268873e-01 -2.967747e-01 -2.565493e-01 -2.078845e-01 -1.525872e-01 -9.254535e-02 -2.969195e-02 3.401838e-02 9.662498e-02 1.561745e-01 2.107373e-01 2.584320e-01 2.974639e-01 3.261794e-01 3.431406e-01 3.472179e-01 3.376961e-01 3.143844e-01 2.777150e-01 2.288114e-01 1.695055e-01 1.022880e-01 3.018494e-02 -4.343218e-02 -1.150831e-01 -1.814299e-01 -2.395089e-01 -2.869122e-01 -3.219006e-01 -3.434439e-01 -3.511953e-01 -3.730119e-01 -3.523979e-01 -3.194291e-01 -2.757416e-01 -2.231607e-01 -1.636245e-01 -9.913182e-02 -3.170957e-02 3.660439e-02 1.037696e-01 1.677485e-01 2.265157e-01 2.780765e-01 3.205021e-01 3.519847e-01 3.709171e-01 3.759970e-01 3.663504e-01 3.416652e-01 3.023152e-01 2.494523e-01 1.850407e-01 1.118100e-01 3.311851e-02 -4.726732e-02 -1.254521e-01 -1.977094e-01 -2.607545e-01 -3.119546e-01 -3.494527e-01 -3.722024e-01 -3.799250e-01 -4.022031e-01 -3.793232e-01 -3.432897e-01 -2.959191e-01 -2.391971e-01 -1.751981e-01 -1.060334e-01 -3.382351e-02 3.931206e-02 1.112550e-01 1.798852e-01 2.430814e-01 2.987336e-01 3.447735e-01 3.792296e-01 4.003121e-01 4.065284e-01 3.968259e-01 3.707507e-01 3.286019e-01 2.715515e-01 2.016989e-01 1.220303e-01 3.626701e-02 -5.138947e-02 -1.365853e-01 -2.151663e-01 -2.834980e-01 -3.387073e-01 -3.788181e-01 -4.027780e-01 -4.103933e-01 -4.319189e-01 -4.066670e-01 -3.674687e-01 -3.163276e-01 -2.553924e-01 -1.868728e-01 -1.129901e-01 -3.595413e-02 4.203924e-02 1.187993e-01 1.921283e-01 2.598134e-01 3.196316e-01 3.693755e-01 4.069070e-01 4.302464e-01 4.376999e-01 4.280216e-01 4.005997e-01 3.556425e-01 2.943312e-01 2.188980e-01 1.325935e-01 3.952087e-02 -5.565627e-02 -1.480961e-01 -2.331906e-01 -3.069383e-01 -3.662199e-01 -4.089441e-01 -4.340645e-01 -4.414885e-01 -4.609400e-01 -4.333079e-01 -3.909757e-01 -3.361322e-01 -2.710845e-01 -1.981720e-01 -1.197182e-01 -3.801452e-02 4.467477e-02 1.260947e-01 2.039779e-01 2.760277e-01 3.399155e-01 3.933005e-01 4.338820e-01 4.594917e-01 4.682323e-01 4.586580e-01 4.299889e-01 3.823306e-01 3.168613e-01 2.359371e-01 1.430697e-01 4.274769e-02 -5.989444e-02 -1.595161e-01 -2.510475e-01 -3.301181e-01 -3.933663e-01 -4.385958e-01 -4.647782e-01 -4.719342e-01 -4.879506e-01 -4.580467e-01 -4.127599e-01 -3.544531e-01 -2.855803e-01 -2.085985e-01 -1.259224e-01 -3.991431e-02 4.710334e-02 1.328212e-01 2.149126e-01 2.910078e-01 3.586838e-01 4.154782e-01 4.589393e-01 4.867209e-01 4.967298e-01 4.873249e-01 4.575574e-01 4.074242e-01 3.380893e-01 2.520183e-01 1.529679e-01 4.579636e-02 -6.390483e-02 -1.703096e-01 -2.679009e-01 -3.519546e-01 -4.188836e-01 -4.664008e-01 -4.935066e-01 -5.003399e-01 -5.116136e-01 -4.796750e-01 -4.317700e-01 -3.704156e-01 -2.981939e-01 -2.176624e-01 -1.313125e-01 -4.156468e-02 4.921187e-02 1.386645e-01 2.244186e-01 3.040444e-01 3.750393e-01 4.348365e-01 4.808526e-01 5.105835e-01 5.217601e-01 5.125624e-01 4.818841e-01 4.296156e-01 3.568994e-01 2.662911e-01 1.617627e-01 4.850528e-02 -6.747315e-02 -1.799027e-01 -2.828590e-01 -3.713007e-01 -4.414437e-01 -4.909281e-01 -5.187892e-01 -5.252806e-01 -5.306680e-01 -4.970606e-01 -4.470273e-01 -3.832099e-01 -3.082930e-01 -2.249136e-01 -1.356225e-01 -4.288423e-02 5.089694e-02 1.433364e-01 2.320237e-01 3.144833e-01 3.881507e-01 4.503766e-01 4.984718e-01 5.298042e-01 5.419599e-01 5.329701e-01 5.015946e-01 4.476311e-01 3.721974e-01 2.779166e-01 1.689338e-01 5.071443e-02 -7.038621e-02 -1.877264e-01 -2.950422e-01 -3.870319e-01 -4.597540e-01 -5.107953e-01 -5.392269e-01 -5.454019e-01 -5.440364e-01 -5.092420e-01 -4.577048e-01 -3.921548e-01 -3.153478e-01 -2.299759e-01 -1.386302e-01 -4.380505e-02 5.207242e-02 1.465965e-01 2.373332e-01 3.217761e-01 3.973183e-01 4.612538e-01 5.108193e-01 5.432923e-01 5.561559e-01 5.473344e-01 5.154902e-01 4.603516e-01 3.830151e-01 2.861482e-01 1.740163e-01 5.228048e-02 -7.245263e-02 -1.932719e-01 -3.036683e-01 -3.981544e-01 -4.726800e-01 -5.247981e-01 -5.536087e-01 -5.595393e-01 -5.509295e-01 -5.155177e-01 -4.632017e-01 -3.967568e-01 -3.189757e-01 -2.325781e-01 -1.401759e-01 -4.427825e-02 5.267635e-02 1.482718e-01 2.400625e-01 3.255264e-01 4.020354e-01 4.668542e-01 5.171815e-01 5.502481e-01 5.634836e-01 5.547563e-01 5.226772e-01 4.669377e-01 3.886218e-01 2.904184e-01 1.766546e-01 5.309356e-02 -7.352586e-02 -1.961506e-01 -3.081429e-01 -4.039184e-01 -4.793716e-01 -5.320394e-01 -5.610385e-01 -5.668356e-01 -5.509295e-01 -5.155177e-01 -4.632017e-01 -3.967568e-01 -3.189757e-01 -2.325781e-01 -1.401759e-01 -4.427825e-02 5.267635e-02 1.482718e-01 2.400625e-01 3.255264e-01 4.020354e-01 4.668542e-01 5.171815e-01 5.502481e-01 5.634836e-01 5.547563e-01 5.226772e-01 4.669377e-01 3.886218e-01 2.904184e-01 1.766546e-01 5.309356e-02 -7.352586e-02 -1.961506e-01 -3.081429e-01 -4.039184e-01 -4.793716e-01 -5.320394e-01 -5.610385e-01 -5.668356e-01 -5.440364e-01 -5.092420e-01 -4.577048e-01 -3.921548e-01 -3.153478e-01 -2.299759e-01 -1.386302e-01 -4.380505e-02 5.207242e-02 1.465965e-01 2.373332e-01 3.217761e-01 3.973183e-01 4.612538e-01 5.108193e-01 5.432923e-01 5.561559e-01 5.473344e-01 5.154902e-01 4.603516e-01 3.830151e-01 2.861482e-01 1.740163e-01 5.228047e-02 -7.245263e-02 -1.932719e-01 -3.036683e-01 -3.981544e-01 -4.726800e-01 -5.247981e-01 -5.536087e-01 -5.595393e-01 -5.306680e-01 -4.970606e-01 -4.470273e-01 -3.832099e-01 -3.082930e-01 -2.249136e-01 -1.356225e-01 -4.288423e-02 5.089694e-02 1.433364e-01 2.320237e-01 3.144833e-01 3.881507e-01 4.503766e-01 4.984718e-01 5.298042e-01 5.419599e-01 5.329701e-01 5.015946e-01 4.476311e-01 3.721974e-01 2.779166e-01 1.689338e-01 5.071443e-02 -7.038621e-02 -1.877264e-01 -2.950422e-01 -3.870319e-01 -4.597540e-01 -5.107953e-01 -5.392269e-01 -5.454019e-01 -5.116136e-01 -4.796750e-01 -4.317700e-01 -3.704156e-01 -2.981939e-01 -2.176624e-01 -1.313125e-01 -4.156468e-02 4.921187e-02 1.386645e-01 2.244186e-01 3.040444e-01 3.750393e-01 4.348365e-01 4.808526e-01 5.105835e-01 5.217601e-01 5.125624e-01 4.818841e-01 4.296156e-01 3.568994e-01 2.662911e-01 1.617627e-01 4.850528e-02 -6.747315e-02 -1.799027e-01 -2.828590e-01 -3.713007e-01 -4.414437e-01 -4.909281e-01 -5.187892e-01 -5.252806e-01 -4.879506e-01 -4.580467e-01 -4.127599e-01 -3.544531e-01 -2.855803e-01 -2.085985e-01 -1.259224e-01 -3.991431e-02 4.710334e-02 1.328212e-01 2.149126e-01 2.910078e-01 3.586838e-01 4.154782e-01 4.589393e-01 4.867209e-01 4.967298e-01 4.873249e-01 4.575574e-01 4.074242e-01 3.380893e-01 2.520183e-01 1.529679e-01 4.579636e-02 -6.390483e-02 -1.703096e-01 -2.679009e-01 -3.519546e-01 -4.188836e-01 -4.664008e-01 -4.935066e-01 -5.003399e-01 -4.609400e-01 -4.333079e-01 -3.909757e-01 -3.361322e-01 -2.710845e-01 -1.981720e-01 -1.197182e-01 -3.801453e-02 4.467477e-02 1.260947e-01 2.039779e-01 2.760277e-01 3.399155e-01 3.933005e-01 4.338820e-01 4.594917e-01 4.682323e-01 4.586580e-01 4.299889e-01 3.823306e-01 3.168613e-01 2.359371e-01 1.430697e-01 4.274769e-02 -5.989444e-02 -1.595161e-01 -2.510475e-01 -3.301181e-01 -3.933663e-01 -4.385958e-01 -4.647782e-01 -4.719342e-01 -4.319189e-01 -4.066670e-01 -3.674687e-01 -3.163276e-01 -2.553924e-01 -1.868728e-01 -1.129901e-01 -3.595413e-02 4.203924e-02 1.187993e-01 1.921283e-01 2.598134e-01 3.196316e-01 3.693755e-01 4.069070e-01 4.302464e-01 4.376999e-01 4.280216e-01 4.005997e-01 3.556425e-01 2.943312e-01 2.188980e-01 1.325935e-01 3.952087e-02 -5.565627e-02 -1.480961e-01 -2.331906e-01 -3.069383e-01 -3.662199e-01 -4.089441e-01 -4.340645e-01 -4.414885e-01 -4.022031e-01 -3.793232e-01 -3.432897e-01 -2.959191e-01 -2.391971e-01 -1.751981e-01 -1.060334e-01 -3.382351e-02 3.931206e-02 1.112550e-01 1.798852e-01 2.430814e-01 2.987336e-01 3.447735e-01 3.792296e-01 4.003121e-01 4.065284e-01 3.968259e-01 3.707507e-01 3.286019e-01 2.715515e-01 2.016989e-01 1.220303e-01 3.626701e-02 -5.138947e-02 -1.365853e-01 -2.151663e-01 -2.834980e-01 -3.387073e-01 -3.788181e-01 -4.027780e-01 -4.103933e-01 -3.730119e-01 -3.523979e-01 -3.194291e-01 -2.757416e-01 -2.231607e-01 -1.636245e-01 -9.913182e-02 -3.170957e-02 3.660439e-02 1.037696e-01 1.677485e-01 2.265157e-01 2.780765e-01 3.205021e-01 3.519847e-01 3.709171e-01 3.759970e-01 3.663504e-01 3.416652e-01 3.023152e-01 2.494523e-01 1.850407e-01 1.118100e-01 3.311851e-02 -4.726732e-02 -1.254521e-01 -1.977094e-01 -2.607545e-01 -3.119546e-01 -3.494527e-01 -3.722024e-01 -3.799250e-01 -3.454185e-01 -3.268873e-01 -2.967747e-01 -2.565493e-01 -2.078845e-01 -1.525872e-01 -9.254535e-02 -2.969195e-02 3.401838e-02 9.662498e-02 1.561745e-01 2.107373e-01 2.584320e-01 2.974639e-01 3.261794e-01 3.431406e-01 3.472179e-01 3.376961e-01 3.143844e-01 2.777150e-01 2.288114e-01 1.695055e-01 1.022880e-01 3.018494e-02 -4.343218e-02 -1.150831e-01 -1.814299e-01 -2.395089e-01 -2.869122e-01 -3.219006e-01 -3.434439e-01 -3.511953e-01 -3.203247e-01 -3.036375e-01 -2.760876e-01 -2.389938e-01 -1.938916e-01 -1.424664e-01 -8.650175e-02 -2.784045e-02 3.164381e-02 9.006841e-02 1.455618e-01 1.962860e-01 2.404662e-01 2.764313e-01 3.026677e-01 3.178882e-01 3.211141e-01 3.117657e-01 2.897523e-01 2.555494e-01 2.102466e-01 1.555525e-01 9.374342e-02 2.755236e-02 -3.999502e-02 -1.057811e-01 -1.668087e-01 -2.203979e-01 -2.643432e-01 -2.970168e-01 -3.174110e-01 -3.251276e-01 -2.984563e-01 -2.833369e-01 -2.579929e-01 -2.236148e-01 -1.816181e-01 -1.335808e-01 -8.119251e-02 -2.621380e-02 2.955643e-02 8.430788e-02 1.362444e-01 1.836116e-01 2.247303e-01 2.580383e-01 2.821435e-01 2.958874e-01 2.984181e-01 2.892671e-01 2.684230e-01 2.363911e-01 1.942260e-01 1.435266e-01 8.638483e-02 2.528511e-02 -3.703816e-02 -9.777233e-02 -1.542073e-01 -2.039042e-01 -2.448326e-01 -2.754641e-01 -2.948173e-01 -3.024568e-01 -2.803728e-01 -2.665223e-01 -2.429828e-01 -2.108408e-01 -1.714125e-01 -1.261862e-01 -7.677191e-02 -2.485931e-02 2.781747e-02 7.951108e-02 1.284907e-01 1.730737e-01 2.116616e-01 2.427835e-01 2.651472e-01 2.776987e-01 2.796874e-01 2.707319e-01 2.508809e-01 2.206591e-01 1.810882e-01 1.336751e-01 8.036078e-02 2.342902e-02 -3.461974e-02 -9.121735e-02 -1.438845e-01 -1.903772e-01 -2.288087e-01 -2.577348e-01 -2.761995e-01 -2.837424e-01 -2.664862e-01 -2.535929e-01 -2.314272e-01 -2.009962e-01 -1.635406e-01 -1.204788e-01 -7.335843e-02 -2.381334e-02 2.647409e-02 7.580681e-02 1.225061e-01 1.649459e-01 2.015910e-01 2.310410e-01 2.520803e-01 2.637339e-01 2.653265e-01 2.565409e-01 2.374685e-01 2.086456e-01 1.710664e-01 1.261664e-01 7.577185e-02 2.201511e-02 -3.277877e-02 -8.622478e-02 -1.360168e-01 -1.800580e-01 -2.165709e-01 -2.441771e-01 -2.619428e-01 -2.693913e-01 -2.570816e-01 -2.448282e-01 -2.235867e-01 -1.943116e-01 -1.581920e-01 -1.165990e-01 -7.103731e-02 -2.310206e-02 2.556030e-02 7.328780e-02 1.184379e-01 1.594236e-01 1.947534e-01 2.230746e-01 2.432234e-01 2.542775e-01 2.556119e-01 2.469511e-01 2.284138e-01 2.005427e-01 1.643122e-01 1.211090e-01 7.268218e-02 2.106313e-02 -3.153990e-02 -8.286373e-02 -1.307175e-01 -1.731028e-01 -2.083159e-01 -2.350232e-01 -2.523073e-01 -2.596821e-01 -2.523368e-01 -2.404036e-01 -2.196265e-01 -1.909336e-01 -1.554881e-01 -1.146370e-01 -6.986336e-02 -2.274232e-02 2.509805e-02 7.201373e-02 1.163807e-01 1.566321e-01 1.912983e-01 2.190512e-01 2.387526e-01 2.495070e-01 2.507142e-01 2.421193e-01 2.238543e-01 1.964647e-01 1.609146e-01 1.185659e-01 7.112891e-02 2.058455e-02 -3.091727e-02 -8.117415e-02 -1.280528e-01 -1.696041e-01 -2.041612e-01 -2.304135e-01 -2.474521e-01 -2.547866e-01 -2.570816e-01 -2.448282e-01 -2.235867e-01 -1.943116e-01 -1.581920e-01 -1.165990e-01 -7.103731e-02 -2.310206e-02 2.556030e-02 7.328780e-02 1.184379e-01 1.594236e-01 1.947534e-01 2.230746e-01 2.432234e-01 2.542775e-01 2.556119e-01 2.469511e-01 2.284138e-01 2.005427e-01 1.643122e-01 1.211090e-01 7.268218e-02 2.106313e-02 -3.153990e-02 -8.286373e-02 -1.307175e-01 -1.731028e-01 -2.083159e-01 -2.350232e-01 -2.523073e-01 -2.596821e-01 -2.620811e-01 -2.494817e-01 -2.277445e-01 -1.978527e-01 -1.610229e-01 -1.186510e-01 -7.226438e-02 -2.347796e-02 2.604334e-02 7.461961e-02 1.205898e-01 1.623466e-01 1.983759e-01 2.272996e-01 2.479262e-01 2.593050e-01 2.607835e-01 2.520629e-01 2.332464e-01 2.048723e-01 1.679246e-01 1.238160e-01 7.433689e-02 2.157320e-02 -3.220339e-02 -8.466350e-02 -1.335537e-01 -1.768224e-01 -2.127263e-01 -2.399083e-01 -2.574431e-01 -2.648504e-01 -2.719992e-01 -2.587069e-01 -2.359821e-01 -2.048648e-01 -1.666260e-01 -1.227113e-01 -7.469175e-02 -2.422153e-02 2.699865e-02 7.725407e-02 1.248475e-01 1.681322e-01 2.055493e-01 2.356707e-01 2.572500e-01 2.692793e-01 2.710511e-01 2.622192e-01 2.428547e-01 2.134859e-01 1.751156e-01 1.292071e-01 7.763315e-02 2.258930e-02 -3.352554e-02 -8.824897e-02 -1.392019e-01 -1.842264e-01 -2.215004e-01 -2.496203e-01 -2.676460e-01 -2.751105e-01 -2.866645e-01 -2.723327e-01 -2.481366e-01 -2.152019e-01 -1.748800e-01 -1.286892e-01 -7.826432e-02 -2.531583e-02 2.840418e-02 8.113122e-02 1.311163e-01 1.766556e-01 2.161252e-01 2.480236e-01 2.710230e-01 2.840300e-01 2.862534e-01 2.772748e-01 2.571145e-01 2.262832e-01 1.858092e-01 1.372297e-01 8.254079e-02 2.410219e-02 -3.549510e-02 -9.358780e-02 -1.476073e-01 -1.952359e-01 -2.345347e-01 -2.640322e-01 -2.827687e-01 -2.902997e-01 -3.057991e-01 -2.900835e-01 -2.639488e-01 -2.286335e-01 -1.855943e-01 -1.364431e-01 -8.289599e-02 -2.673442e-02 3.022550e-02 8.615738e-02 1.392475e-01 1.877202e-01 2.298687e-01 2.640964e-01 2.889690e-01 3.032796e-01 3.061248e-01 2.969869e-01 2.758144e-01 2.430900e-01 1.998710e-01 1.477900e-01 8.900496e-02 2.609501e-02 -3.809136e-02 -1.006210e-01 -1.586715e-01 -2.097123e-01 -2.516506e-01 -2.829284e-01 -3.025649e-01 -3.101499e-01 -3.289945e-01 -3.115603e-01 -2.830468e-01 -2.448317e-01 -1.984995e-01 -1.457737e-01 -8.846619e-02 -2.844027e-02 3.241459e-02 9.220144e-02 1.490325e-01 2.010486e-01 2.464455e-01 2.835128e-01 3.106867e-01 3.266203e-01 3.302688e-01 3.209869e-01 2.986279e-01 2.636320e-01 2.170855e-01 1.607343e-01 9.693497e-02 2.853987e-02 -4.127952e-02 -1.092510e-01 -1.722337e-01 -2.274326e-01 -2.725667e-01 -3.059762e-01 -3.266612e-01 -3.342620e-01 -3.556866e-01 -3.362189e-01 -3.049294e-01 -2.633589e-01 -2.132388e-01 -1.564188e-01 -9.481665e-02 -3.038483e-02 3.490857e-02 9.909137e-02 1.601963e-01 2.162730e-01 2.654092e-01 3.057654e-01 3.356288e-01 3.534874e-01 3.581276e-01 3.487474e-01 3.250789e-01 2.875019e-01 2.371272e-01 1.758271e-01 1.061903e-01 3.139348e-02 -4.500499e-02 -1.193258e-01 -1.880474e-01 -2.480607e-01 -2.968665e-01 -3.326920e-01 -3.545251e-01 -3.620755e-01 -3.851311e-01 -3.633514e-01 -3.289523e-01 -2.836581e-01 -2.293616e-01 -1.680489e-01 -1.017493e-01 -3.250736e-02 3.762910e-02 1.066120e-01 1.723934e-01 2.329285e-01 2.861907e-01 3.302009e-01 3.630815e-01 3.831350e-01 3.889531e-01 3.795492e-01 3.545071e-01 3.141251e-01 2.595294e-01 1.927266e-01 1.165651e-01 3.459238e-02 -4.918694e-02 -1.306228e-01 -2.057544e-01 -2.711154e-01 -3.239628e-01 -3.624059e-01 -3.854311e-01 -3.928403e-01 -4.163880e-01 -3.920751e-01 -3.543215e-01 -3.050493e-01 -2.463224e-01 -1.802675e-01 -1.090266e-01 -3.473508e-02 4.048253e-02 1.145056e-01 1.852080e-01 2.504521e-01 3.080950e-01 3.560132e-01 3.921540e-01 4.146191e-01 4.217845e-01 4.124543e-01 3.860376e-01 3.427286e-01 2.836557e-01 2.109613e-01 1.277734e-01 3.804837e-02 -5.371198e-02 -1.428315e-01 -2.248611e-01 -2.959409e-01 -3.530671e-01 -3.942319e-01 -4.184353e-01 -4.255945e-01 -4.483207e-01 -4.213364e-01 -3.800994e-01 -3.267373e-01 -2.634877e-01 -1.926168e-01 -1.163755e-01 -3.698435e-02 4.336158e-02 1.224758e-01 1.981602e-01 2.681896e-01 3.303084e-01 3.822492e-01 4.217810e-01 4.467965e-01 4.554424e-01 4.462943e-01 4.185649e-01 3.723223e-01 3.086809e-01 2.299137e-01 1.394384e-01 4.164529e-02 -5.842949e-02 -1.555426e-01 -2.447207e-01 -3.216874e-01 -3.831706e-01 -4.270524e-01 -4.523640e-01 -4.591597e-01 -4.796188e-01 -4.499342e-01 -4.052285e-01 -3.478333e-01 -2.801547e-01 -2.045916e-01 -1.234955e-01 -3.916322e-02 4.614863e-02 1.301967e-01 2.107202e-01 2.854148e-01 3.519205e-01 4.078327e-01 4.507467e-01 4.783469e-01 4.885468e-01 4.796844e-01 4.507611e-01 4.017021e-01 3.335908e-01 2.488188e-01 1.510906e-01 4.523843e-02 -6.315030e-02 -1.682448e-01 -2.645316e-01 -3.473114e-01 -4.130482e-01 -4.595272e-01 -4.858278e-01 -4.921592e-01 -5.088486e-01 -4.765690e-01 -4.285757e-01 -3.673925e-01 -2.955815e-01 -2.156613e-01 -1.300720e-01 -4.117548e-02 4.872090e-02 1.373275e-01 2.223313e-01 3.013605e-01 3.719628e-01 4.316090e-01 4.777336e-01 5.078237e-01 5.195682e-01 5.110706e-01 4.811189e-01 4.294860e-01 3.572099e-01 2.667832e-01 1.621792e-01 4.865822e-02 -6.765094e-02 -1.803373e-01 -2.833574e-01 -3.716038e-01 -4.412948e-01 -4.901366e-01 -5.172710e-01 -5.230698e-01 -5.345358e-01 -4.999173e-01 -4.489967e-01 -3.844680e-01 -3.090288e-01 -2.252996e-01 -1.357940e-01 -4.292605e-02 5.095737e-02 1.435310e-01 2.324414e-01 3.152620e-01 3.894637e-01 4.524110e-01 5.013982e-01 5.337374e-01 5.469147e-01 5.388181e-01 5.080349e-01 4.541890e-01 3.782640e-01 2.828317e-01 1.721007e-01 5.171882e-02 -7.168476e-02 -1.911604e-01 -3.001756e-01 -3.932547e-01 -4.664026e-01 -5.172666e-01 -5.450586e-01 -5.503083e-01 -5.552749e-01 -5.187278e-01 -4.654181e-01 -3.981773e-01 -3.198113e-01 -2.330205e-01 -1.403749e-01 -4.432736e-02 5.274679e-02 1.484971e-01 2.405406e-01 3.264100e-01 4.035170e-01 4.691427e-01 5.204689e-01 5.546658e-01 5.690523e-01 5.613363e-01 5.299341e-01 4.743386e-01 3.954789e-01 2.959822e-01 1.802435e-01 5.423192e-02 -7.500039e-02 -2.000450e-01 -3.139564e-01 -4.109547e-01 -4.868773e-01 -5.393334e-01 -5.676019e-01 -5.723513e-01 -5.698546e-01 -5.319302e-01 -4.769271e-01 -4.077740e-01 -3.273518e-01 -2.384161e-01 -1.435746e-01 -4.530609e-02 5.399614e-02 1.519656e-01 2.462006e-01 3.342068e-01 4.133558e-01 4.808713e-01 5.338566e-01 5.693821e-01 5.846472e-01 5.772305e-01 5.454231e-01 4.886201e-01 4.077063e-01 3.053416e-01 1.860480e-01 5.602432e-02 -7.736636e-02 -2.063786e-01 -3.237637e-01 -4.235247e-01 -5.013861e-01 -5.549370e-01 -5.835097e-01 -5.878756e-01 -5.773817e-01 -5.387393e-01 -4.828576e-01 -4.127152e-01 -3.312320e-01 -2.411913e-01 -1.452200e-01 -4.580934e-02 5.463839e-02 1.537491e-01 2.491119e-01 3.382191e-01 4.184222e-01 4.869156e-01 5.407623e-01 5.769809e-01 5.927092e-01 5.854575e-01 5.534512e-01 4.960332e-01 4.140629e-01 3.102146e-01 1.890732e-01 5.695888e-02 -7.860016e-02 -2.096795e-01 -3.288695e-01 -4.300586e-01 -5.089162e-01 -5.630233e-01 -5.917424e-01 -5.958997e-01 -5.773817e-01 -5.387393e-01 -4.828576e-01 -4.127152e-01 -3.312320e-01 -2.411913e-01 -1.452200e-01 -4.580934e-02 5.463839e-02 1.537491e-01 2.491119e-01 3.382191e-01 4.184222e-01 4.869156e-01 5.407623e-01 5.769809e-01 5.927092e-01 5.854575e-01 5.534512e-01 4.960332e-01 4.140629e-01 3.102146e-01 1.890732e-01 5.695888e-02 -7.860016e-02 -2.096795e-01 -3.288695e-01 -4.300586e-01 -5.089162e-01 -5.630233e-01 -5.917424e-01 -5.958997e-01 -5.698546e-01 -5.319302e-01 -4.769271e-01 -4.077740e-01 -3.273518e-01 -2.384161e-01 -1.435746e-01 -4.530609e-02 5.399614e-02 1.519656e-01 2.462006e-01 3.342068e-01 4.133558e-01 4.808713e-01 5.338566e-01 5.693821e-01 5.846472e-01 5.772305e-01 5.454231e-01 4.886201e-01 4.077063e-01 3.053416e-01 1.860480e-01 5.602432e-02 -7.736636e-02 -2.063786e-01 -3.237637e-01 -4.235247e-01 -5.013861e-01 -5.549370e-01 -5.835097e-01 -5.878756e-01 -5.552749e-01 -5.187278e-01 -4.654181e-01 -3.981773e-01 -3.198113e-01 -2.330205e-01 -1.403749e-01 -4.432736e-02 5.274679e-02 1.484971e-01 2.405406e-01 3.264100e-01 4.035170e-01 4.691427e-01 5.204689e-01 5.546658e-01 5.690523e-01 5.613363e-01 5.299341e-01 4.743386e-01 3.954789e-01 2.959822e-01 1.802435e-01 5.423192e-02 -7.500039e-02 -2.000450e-01 -3.139564e-01 -4.109547e-01 -4.868773e-01 -5.393334e-01 -5.676019e-01 -5.723513e-01 -5.345358e-01 -4.999173e-01 -4.489967e-01 -3.844680e-01 -3.090288e-01 -2.252996e-01 -1.357940e-01 -4.292605e-02 5.095737e-02 1.435310e-01 2.324414e-01 3.152620e-01 3.894637e-01 4.524110e-01 5.013982e-01 5.337374e-01 5.469147e-01 5.388181e-01 5.080349e-01 4.541890e-01 3.782640e-01 2.828317e-01 1.721007e-01 5.171882e-02 -7.168476e-02 -1.911604e-01 -3.001756e-01 -3.932547e-01 -4.664026e-01 -5.172666e-01 -5.450586e-01 -5.503083e-01 -5.088486e-01 -4.765690e-01 -4.285757e-01 -3.673925e-01 -2.955815e-01 -2.156613e-01 -1.300720e-01 -4.117548e-02 4.872090e-02 1.373275e-01 2.223313e-01 3.013605e-01 3.719628e-01 4.316090e-01 4.777336e-01 5.078237e-01 5.195682e-01 5.110706e-01 4.811189e-01 4.294860e-01 3.572099e-01 2.667832e-01 1.621792e-01 4.865822e-02 -6.765094e-02 -1.803373e-01 -2.833574e-01 -3.716038e-01 -4.412948e-01 -4.901366e-01 -5.172710e-01 -5.230698e-01 -4.796188e-01 -4.499342e-01 -4.052285e-01 -3.478333e-01 -2.801547e-01 -2.045916e-01 -1.234955e-01 -3.916322e-02 4.614863e-02 1.301967e-01 2.107202e-01 2.854148e-01 3.519205e-01 4.078327e-01 4.507467e-01 4.783469e-01 4.885468e-01 4.796844e-01 4.507611e-01 4.017021e-01 3.335908e-01 2.488188e-01 1.510906e-01 4.523843e-02 -6.315030e-02 -1.682448e-01 -2.645316e-01 -3.473114e-01 -4.130482e-01 -4.595271e-01 -4.858278e-01 -4.921592e-01 -4.483207e-01 -4.213364e-01 -3.800994e-01 -3.267373e-01 -2.634877e-01 -1.926168e-01 -1.163755e-01 -3.698435e-02 4.336158e-02 1.224758e-01 1.981602e-01 2.681896e-01 3.303084e-01 3.822492e-01 4.217810e-01 4.467965e-01 4.554424e-01 4.462943e-01 4.185649e-01 3.723223e-01 3.086809e-01 2.299137e-01 1.394384e-01 4.164529e-02 -5.842949e-02 -1.555426e-01 -2.447207e-01 -3.216874e-01 -3.831706e-01 -4.270524e-01 -4.523640e-01 -4.591597e-01 -4.163880e-01 -3.920751e-01 -3.543215e-01 -3.050493e-01 -2.463224e-01 -1.802675e-01 -1.090266e-01 -3.473508e-02 4.048253e-02 1.145056e-01 1.852080e-01 2.504521e-01 3.080950e-01 3.560132e-01 3.921540e-01 4.146191e-01 4.217845e-01 4.124543e-01 3.860376e-01 3.427286e-01 2.836557e-01 2.109613e-01 1.277734e-01 3.804837e-02 -5.371198e-02 -1.428315e-01 -2.248611e-01 -2.959409e-01 -3.530671e-01 -3.942319e-01 -4.184353e-01 -4.255945e-01 -3.851311e-01 -3.633514e-01 -3.289523e-01 -2.836581e-01 -2.293616e-01 -1.680489e-01 -1.017493e-01 -3.250736e-02 3.762910e-02 1.066120e-01 1.723934e-01 2.329285e-01 2.861907e-01 3.302009e-01 3.630815e-01 3.831350e-01 3.889531e-01 3.795492e-01 3.545071e-01 3.141251e-01 2.595294e-01 1.927266e-01 1.165651e-01 3.459238e-02 -4.918694e-02 -1.306228e-01 -2.057544e-01 -2.711154e-01 -3.239628e-01 -3.624059e-01 -3.854311e-01 -3.928403e-01 -3.556866e-01 -3.362189e-01 -3.049294e-01 -2.633589e-01 -2.132388e-01 -1.564188e-01 -9.481665e-02 -3.038483e-02 3.490857e-02 9.909137e-02 1.601963e-01 2.162730e-01 2.654092e-01 3.057654e-01 3.356288e-01 3.534874e-01 3.581276e-01 3.487474e-01 3.250789e-01 2.875019e-01 2.371272e-01 1.758271e-01 1.061903e-01 3.139348e-02 -4.500499e-02 -1.193258e-01 -1.880474e-01 -2.480607e-01 -2.968665e-01 -3.326920e-01 -3.545251e-01 -3.620755e-01 -3.289945e-01 -3.115603e-01 -2.830468e-01 -2.448317e-01 -1.984995e-01 -1.457737e-01 -8.846619e-02 -2.844027e-02 3.241459e-02 9.220144e-02 1.490325e-01 2.010486e-01 2.464455e-01 2.835128e-01 3.106867e-01 3.266203e-01 3.302688e-01 3.209869e-01 2.986279e-01 2.636320e-01 2.170855e-01 1.607343e-01 9.693497e-02 2.853987e-02 -4.127952e-02 -1.092510e-01 -1.722337e-01 -2.274326e-01 -2.725667e-01 -3.059762e-01 -3.266612e-01 -3.342620e-01 -3.057991e-01 -2.900835e-01 -2.639488e-01 -2.286335e-01 -1.855943e-01 -1.364431e-01 -8.289599e-02 -2.673442e-02 3.022550e-02 8.615738e-02 1.392475e-01 1.877202e-01 2.298687e-01 2.640964e-01 2.889690e-01 3.032796e-01 3.061248e-01 2.969869e-01 2.758144e-01 2.430900e-01 1.998710e-01 1.477900e-01 8.900496e-02 2.609501e-02 -3.809136e-02 -1.006210e-01 -1.586715e-01 -2.097123e-01 -2.516506e-01 -2.829284e-01 -3.025649e-01 -3.101499e-01 -2.866645e-01 -2.723327e-01 -2.481366e-01 -2.152019e-01 -1.748800e-01 -1.286892e-01 -7.826432e-02 -2.531583e-02 2.840418e-02 8.113122e-02 1.311163e-01 1.766556e-01 2.161252e-01 2.480236e-01 2.710230e-01 2.840300e-01 2.862534e-01 2.772748e-01 2.571145e-01 2.262832e-01 1.858092e-01 1.372297e-01 8.254079e-02 2.410219e-02 -3.549510e-02 -9.358780e-02 -1.476073e-01 -1.952359e-01 -2.345347e-01 -2.640322e-01 -2.827687e-01 -2.902997e-01 -2.719992e-01 -2.587069e-01 -2.359821e-01 -2.048648e-01 -1.666260e-01 -1.227113e-01 -7.469175e-02 -2.422153e-02 2.699865e-02 7.725407e-02 1.248475e-01 1.681322e-01 2.055493e-01 2.356707e-01 2.572500e-01 2.692793e-01 2.710511e-01 2.622192e-01 2.428547e-01 2.134859e-01 1.751156e-01 1.292071e-01 7.763315e-02 2.258930e-02 -3.352554e-02 -8.824897e-02 -1.392019e-01 -1.842264e-01 -2.215004e-01 -2.496203e-01 -2.676460e-01 -2.751105e-01 -2.620811e-01 -2.494817e-01 -2.277445e-01 -1.978527e-01 -1.610229e-01 -1.186510e-01 -7.226438e-02 -2.347796e-02 2.604334e-02 7.461961e-02 1.205898e-01 1.623466e-01 1.983759e-01 2.272996e-01 2.479262e-01 2.593050e-01 2.607835e-01 2.520629e-01 2.332464e-01 2.048723e-01 1.679246e-01 1.238160e-01 7.433689e-02 2.157320e-02 -3.220339e-02 -8.466350e-02 -1.335537e-01 -1.768224e-01 -2.127263e-01 -2.399083e-01 -2.574431e-01 -2.648504e-01 -2.570816e-01 -2.448282e-01 -2.235867e-01 -1.943116e-01 -1.581920e-01 -1.165990e-01 -7.103731e-02 -2.310206e-02 2.556030e-02 7.328780e-02 1.184379e-01 1.594236e-01 1.947534e-01 2.230746e-01 2.432234e-01 2.542775e-01 2.556119e-01 2.469511e-01 2.284138e-01 2.005427e-01 1.643122e-01 1.211090e-01 7.268218e-02 2.106313e-02 -3.153990e-02 -8.286373e-02 -1.307175e-01 -1.731028e-01 -2.083159e-01 -2.350232e-01 -2.523073e-01 -2.596821e-01 -2.664862e-01 -2.535929e-01 -2.314272e-01 -2.009962e-01 -1.635406e-01 -1.204788e-01 -7.335843e-02 -2.381334e-02 2.647409e-02 7.580681e-02 1.225061e-01 1.649459e-01 2.015910e-01 2.310410e-01 2.520803e-01 2.637339e-01 2.653265e-01 2.565409e-01 2.374685e-01 2.086456e-01 1.710664e-01 1.261664e-01 7.577185e-02 2.201511e-02 -3.277877e-02 -8.622478e-02 -1.360168e-01 -1.800580e-01 -2.165709e-01 -2.441771e-01 -2.619428e-01 -2.693913e-01 -2.719992e-01 -2.587069e-01 -2.359821e-01 -2.048648e-01 -1.666260e-01 -1.227113e-01 -7.469175e-02 -2.422153e-02 2.699865e-02 7.725407e-02 1.248475e-01 1.681322e-01 2.055493e-01 2.356707e-01 2.572500e-01 2.692793e-01 2.710511e-01 2.622192e-01 2.428547e-01 2.134859e-01 1.751156e-01 1.292071e-01 7.763315e-02 2.258930e-02 -3.352554e-02 -8.824897e-02 -1.392019e-01 -1.842264e-01 -2.215004e-01 -2.496203e-01 -2.676460e-01 -2.751105e-01 -2.829530e-01 -2.688594e-01 -2.450177e-01 -2.125338e-01 -1.727390e-01 -1.271327e-01 -7.733165e-02 -2.502967e-02 2.803701e-02 8.011949e-02 1.294847e-01 1.744457e-01 2.133966e-01 2.448553e-01 2.675139e-01 2.802988e-01 2.824366e-01 2.735231e-01 2.535866e-01 2.231380e-01 1.831960e-01 1.352782e-01 8.135095e-02 2.373630e-02 -3.501771e-02 -9.229239e-02 -1.455616e-01 -1.925442e-01 -2.313297e-01 -2.604650e-01 -2.789985e-01 -2.864843e-01 -2.991921e-01 -2.838893e-01 -2.583774e-01 -2.238604e-01 -1.817596e-01 -1.336526e-01 -8.122277e-02 -2.622073e-02 2.956690e-02 8.434279e-02 1.363229e-01 1.837624e-01 2.249878e-01 2.584370e-01 2.827112e-01 2.966377e-01 2.993436e-01 2.903342e-01 2.695705e-01 2.375333e-01 1.952615e-01 1.443521e-01 8.691096e-02 2.545183e-02 -3.725069e-02 -9.834004e-02 -1.550666e-01 -2.049635e-01 -2.459878e-01 -2.766146e-01 -2.958790e-01 -3.033710e-01 -3.204554e-01 -3.035316e-01 -2.758065e-01 -2.386148e-01 -1.934956e-01 -1.421272e-01 -8.627751e-02 -2.776775e-02 3.155321e-02 8.982862e-02 1.452115e-01 1.958850e-01 2.400891e-01 2.761588e-01 3.025761e-01 3.180365e-01 3.215318e-01 3.124428e-01 2.906342e-01 2.565394e-01 2.112178e-01 1.563678e-01 9.427989e-02 2.772583e-02 -4.021283e-02 -1.063566e-01 -1.676533e-01 -2.213863e-01 -2.653379e-01 -2.978925e-01 -3.180742e-01 