<VTKFile type="RectilinearGrid">
<RectilinearGrid WholeExtent="0 32 0 32 0 32" GhostLevel="0">
<Piece Extent="0 32 0 32 0 32">
<CellData Scalars="p phase" Vectors="vel">
<DataArray type="Float32" Name="p">
-2.646081e-01 -2.429511e-01 -2.126740e-01 -1.749999e-01 -1.313483e-01 -8.328699e-02 -3.248778e-02 1.931304e-02 7.035178e-02 1.188739e-01 1.631721e-01 2.016292e-01 2.327655e-01 2.552935e-01 2.681774e-01 2.706957e-01 2.625015e-01 2.436745e-01 2.147563e-01 1.767611e-01 1.311557e-01 7.980456e-02 2.488100e-02 -3.124904e-02 -8.616104e-02 -1.375100e-01 -1.831590e-01 -2.212869e-01 -2.504660e-01 -2.697073e-01 -2.784748e-01 -2.766720e-01 -2.694847e-01 -2.473294e-01 -2.164263e-01 -1.780269e-01 -1.335772e-01 -8.466843e-02 -3.299342e-02 1.969229e-02 7.160648e-02 1.209756e-01 1.660719e-01 2.052550e-01 2.370198e-01 2.600507e-01 2.732828e-01 2.759662e-01 2.677300e-01 2.486368e-01 2.192225e-01 1.805100e-01 1.339908e-01 8.157007e-02 2.547607e-02 -3.186100e-02 -8.794863e-02 -1.403768e-01 -1.869528e-01 -2.258130e-01 -2.555035e-01 -2.750255e-01 -2.838476e-01 -2.818896e-01 -2.791453e-01 -2.559982e-01 -2.238522e-01 -1.840156e-01 -1.379861e-01 -8.740133e-02 -3.399507e-02 2.043967e-02 7.408464e-02 1.251293e-01 1.718057e-01 2.124284e-01 2.454415e-01 2.694738e-01 2.834021e-01 2.864201e-01 2.781073e-01 2.584920e-01 2.280977e-01 1.879633e-01 1.396290e-01 8.508153e-02 2.665853e-02 -3.308069e-02 -9.150734e-02 -1.460812e-01 -1.944976e-01 -2.348087e-01 -2.655091e-01 -2.855814e-01 -2.945046e-01 -2.922319e-01 -2.933968e-01 -2.687751e-01 -2.347892e-01 -1.928311e-01 -1.444745e-01 -9.142403e-02 -3.547270e-02 2.153283e-02 7.772274e-02 1.312334e-01 1.802388e-01 2.229879e-01 2.578504e-01 2.833726e-01 2.983443e-01 3.018735e-01 2.934647e-01 2.730922e-01 2.412584e-01 1.990242e-01 1.480009e-01 9.029618e-02 2.841211e-02 -3.489794e-02 -9.679989e-02 -1.545576e-01 -2.056990e-01 -2.481514e-01 -2.803340e-01 -3.012041e-01 -3.102591e-01 -3.075045e-01 -3.119318e-01 -2.853723e-01 -2.489822e-01 -2.042628e-01 -1.528854e-01 -9.664014e-02 -3.739443e-02 2.293797e-02 8.242302e-02 1.391307e-01 1.911617e-01 2.366814e-01 2.739631e-01 3.014455e-01 3.178032e-01 3.220293e-01 3.135259e-01 2.921921e-01 2.584978e-01 2.135287e-01 1.589876e-01 9.714122e-02 3.071009e-02 -3.729308e-02 -1.037596e-01 -1.656918e-01 -2.203954e-01 -2.656337e-01 -2.997300e-01 -3.216125e-01 -3.308080e-01 -3.273950e-01 -3.343107e-01 -3.053813e-01 -2.660717e-01 -2.180151e-01 -1.629993e-01 -1.029146e-01 -3.971469e-02 2.460981e-02 8.805145e-02 1.486040e-01 2.042831e-01 2.531553e-01 2.933790e-01 3.232620e-01 3.413367e-01 3.464528e-01 3.378816e-01 3.154232e-01 2.795007e-01 2.312242e-01 1.724047e-01 1.055037e-01 3.351270e-02 -4.023194e-02 -1.122780e-01 -1.793019e-01 -2.383339e-01 -2.869376e-01 -3.233229e-01 -3.463893e-01 -3.557072e-01 -3.514518e-01 -3.599418e-01 -3.282578e-01 -2.855823e-01 -2.336994e-01 -1.745284e-01 -1.100700e-01 -4.237219e-02 2.649188e-02 9.443613e-02 1.593722e-01 2.192229e-01 2.719448e-01 3.155663e-01 3.482443e-01 3.683447e-01 3.745460e-01 3.659605e-01 3.422638e-01 3.038149e-01 2.517437e-01 1.879822e-01 1.152184e-01 3.676377e-02 -4.365976e-02 -1.221903e-01 -1.951162e-01 -2.591433e-01 -3.116034e-01 -3.505806e-01 -3.749505e-01 -3.843444e-01 -3.790599e-01 -3.880659e-01 -3.533104e-01 -3.069148e-01 -2.508288e-01 -1.871127e-01 -1.178842e-01 -4.528828e-02 2.851745e-02 1.013673e-01 1.710891e-01 2.355091e-01 2.924676e-01 3.398518e-01 3.756525e-01 3.980488e-01 4.055228e-01 3.970008e-01 3.720083e-01 3.308204e-01 2.745785e-01 2.053429e-01 1.260540e-01 4.038700e-02 -4.749482e-02 -1.332591e-01 -2.127498e-01 -2.823047e-01 -3.389984e-01 -3.807821e-01 -4.065165e-01 -4.159144e-01 -4.094212e-01 -4.177494e-01 -3.796970e-01 -3.293451e-01 -2.688179e-01 -2.003210e-01 -1.260901e-01 -4.836626e-02 3.061124e-02 1.085999e-01 1.833458e-01 2.525796e-01 3.140234e-01 3.654182e-01 4.045784e-01 4.294812e-01 4.383927e-01 4.300297e-01 4.037435e-01 3.597047e-01 2.990543e-01 2.239828e-01 1.377010e-01 4.428198e-02 -5.162319e-02 -1.451607e-01 -2.316838e-01 -3.071278e-01 -3.682919e-01 -4.129936e-01 -4.400920e-01 -4.494026e-01 -4.415430e-01 -4.478927e-01 -4.064348e-01 -3.520345e-01 -2.869923e-01 -2.136576e-01 -1.343804e-01 -5.149214e-02 3.269200e-02 1.158589e-01 1.956791e-01 2.697922e-01 3.358053e-01 3.913137e-01 4.339524e-01 4.614889e-01 4.719608e-01 4.638582e-01 4.363387e-01 3.894496e-01 3.243177e-01 2.432588e-01 1.497625e-01 4.832074e-02 -5.589614e-02 -1.574776e-01 -2.512542e-01 -3.327372e-01 -3.984428e-01 -4.460602e-01 -4.744618e-01 -4.835861e-01 -4.742431e-01 -4.772582e-01 -4.324275e-01 -3.740541e-01 -3.046089e-01 -2.265777e-01 -1.424162e-01 -5.453764e-02 3.467586e-02 1.228495e-01 2.075867e-01 2.864446e-01 3.569233e-01 4.164788e-01 4.625712e-01 4.927598e-01 5.048507e-01 4.971000e-01 4.684602e-01 4.188408e-01 3.493403e-01 2.623899e-01 1.617535e-01 5.234606e-02 -6.013228e-02 -1.697007e-01 -2.706560e-01 -3.580807e-01 -4.282119e-01 -4.786220e-01 -5.082121e-01 -5.170590e-01 -5.061775e-01 -5.045228e-01 -4.565126e-01 -3.944249e-01 -3.208880e-01 -2.385107e-01 -1.498420e-01 -5.736558e-02 3.648037e-02 1.292697e-01 2.185493e-01 3.018054e-01 3.764428e-01 4.397908e-01 4.891475e-01 5.218753e-01 5.355580e-01 5.282232e-01 4.986174e-01 4.465069e-01 3.729503e-01 2.804784e-01 1.731125e-01 5.617310e-02 -6.412549e-02 -1.812471e-01 -2.889700e-01 -3.819643e-01 -4.562052e-01 -5.091646e-01 -5.397850e-01 -5.482889e-01 -5.358960e-01 -5.283542e-01 -4.775274e-01 -4.121736e-01 -3.350574e-01 -2.488926e-01 -1.563057e-01 -5.983773e-02 3.802869e-02 1.348271e-01 2.280598e-01 3.151548e-01 3.934370e-01 4.601276e-01 5.123831e-01 5.473915e-01 5.625368e-01 5.556372e-01 5.252479e-01 4.709967e-01 3.938962e-01 2.965580e-01 1.832297e-01 5.959680e-02 -6.765917e-02 -1.914950e-01 -3.052163e-01 -4.031214e-01 -4.809548e-01 -5.361071e-01 -5.675695e-01 -5.757054e-01 -5.619262e-01 -5.475061e-01 -4.943908e-01 -4.263992e-01 -3.464048e-01 -2.572037e-01 -1.614823e-01 -6.182471e-02 3.925374e-02 1.392573e-01 2.356553e-01 3.258317e-01 4.070500e-01 4.764456e-01 5.310617e-01 5.679446e-01 5.843139e-01 5.778135e-01 5.468369e-01 4.908914e-01 4.109450e-01 3.096695e-01 1.914946e-01 6.240644e-02 -7.052532e-02 -1.998348e-01 -3.184343e-01 -4.203149e-01 -5.010351e-01 -5.579253e-01 -5.900244e-01 -5.978185e-01 -5.828812e-01 -5.609219e-01 -5.061905e-01 -4.363444e-01 -3.543329e-01 -2.630088e-01 -1.650992e-01 -6.321676e-02 4.010181e-02 1.423418e-01 2.409511e-01 3.332843e-01 4.165629e-01 4.878633e-01 5.441494e-01 5.823677e-01 5.996204e-01 5.934265e-01 5.620614e-01 5.049437e-01 4.230054e-01 3.189576e-01 1.973584e-01 6.440785e-02 -7.254547e-02 -2.057312e-01 -3.277789e-01 -4.324600e-01 -5.152021e-01 -5.732964e-01 -6.058202e-01 -6.133506e-01 -5.975789e-01 -5.678325e-01 -5.122645e-01 -4.414610e-01 -3.584102e-01 -2.659938e-01 -1.669594e-01 -6.393388e-02 4.053546e-02 1.439247e-01 2.436711e-01 3.371148e-01 4.214559e-01 4.937407e-01 5.508924e-01 5.898057e-01 6.075220e-01 6.014946e-01 5.699369e-01 5.122201e-01 4.292562e-01 3.237760e-01 2.004034e-01 6.545003e-02 -7.358963e-02 -2.087858e-01 -3.326197e-01 -4.387484e-01 -5.225318e-01 -5.812422e-01 -6.139780e-01 -6.213647e-01 -6.051559e-01 -5.678325e-01 -5.122645e-01 -4.414610e-01 -3.584102e-01 -2.659938e-01 -1.669594e-01 -6.393388e-02 4.053546e-02 1.439247e-01 2.436711e-01 3.371148e-01 4.214559e-01 4.937407e-01 5.508924e-01 5.898057e-01 6.075220e-01 6.014946e-01 5.699369e-01 5.122201e-01 4.292562e-01 3.237760e-01 2.004034e-01 6.545003e-02 -7.358963e-02 -2.087858e-01 -3.326197e-01 -4.387484e-01 -5.225318e-01 -5.812422e-01 -6.139780e-01 -6.213647e-01 -6.051559e-01 -5.609219e-01 -5.061905e-01 -4.363444e-01 -3.543329e-01 -2.630088e-01 -1.650992e-01 -6.321676e-02 4.010181e-02 1.423418e-01 2.409511e-01 3.332843e-01 4.165629e-01 4.878633e-01 5.441494e-01 5.823677e-01 5.996204e-01 5.934265e-01 5.620614e-01 5.049437e-01 4.230054e-01 3.189576e-01 1.973584e-01 6.440785e-02 -7.254547e-02 -2.057312e-01 -3.277789e-01 -4.324600e-01 -5.152021e-01 -5.732964e-01 -6.058202e-01 -6.133506e-01 -5.975789e-01 -5.475061e-01 -4.943908e-01 -4.263992e-01 -3.464048e-01 -2.572037e-01 -1.614823e-01 -6.182471e-02 3.925374e-02 1.392573e-01 2.356553e-01 3.258317e-01 4.070500e-01 4.764456e-01 5.310617e-01 5.679446e-01 5.843139e-01 5.778135e-01 5.468369e-01 4.908914e-01 4.109450e-01 3.096695e-01 1.914946e-01 6.240644e-02 -7.052532e-02 -1.998348e-01 -3.184343e-01 -4.203149e-01 -5.010351e-01 -5.579253e-01 -5.900244e-01 -5.978185e-01 -5.828812e-01 -5.283542e-01 -4.775274e-01 -4.121736e-01 -3.350574e-01 -2.488926e-01 -1.563057e-01 -5.983773e-02 3.802869e-02 1.348271e-01 2.280598e-01 3.151548e-01 3.934370e-01 4.601276e-01 5.123831e-01 5.473916e-01 5.625368e-01 5.556372e-01 5.252479e-01 4.709967e-01 3.938962e-01 2.965580e-01 1.832297e-01 5.959680e-02 -6.765917e-02 -1.914950e-01 -3.052163e-01 -4.031214e-01 -4.809548e-01 -5.361071e-01 -5.675695e-01 -5.757054e-01 -5.619262e-01 -5.045228e-01 -4.565126e-01 -3.944249e-01 -3.208880e-01 -2.385107e-01 -1.498420e-01 -5.736558e-02 3.648037e-02 1.292697e-01 2.185493e-01 3.018054e-01 3.764428e-01 4.397908e-01 4.891475e-01 5.218753e-01 5.355580e-01 5.282232e-01 4.986174e-01 4.465069e-01 3.729503e-01 2.804784e-01 1.731125e-01 5.617310e-02 -6.412549e-02 -1.812471e-01 -2.889700e-01 -3.819643e-01 -4.562052e-01 -5.091646e-01 -5.397850e-01 -5.482889e-01 -5.358960e-01 -4.772582e-01 -4.324275e-01 -3.740541e-01 -3.046089e-01 -2.265777e-01 -1.424162e-01 -5.453764e-02 3.467586e-02 1.228495e-01 2.075867e-01 2.864446e-01 3.569233e-01 4.164788e-01 4.625712e-01 4.927598e-01 5.048507e-01 4.971000e-01 4.684602e-01 4.188408e-01 3.493403e-01 2.623899e-01 1.617535e-01 5.234606e-02 -6.013228e-02 -1.697007e-01 -2.706560e-01 -3.580807e-01 -4.282119e-01 -4.786220e-01 -5.082121e-01 -5.170590e-01 -5.061775e-01 -4.478927e-01 -4.064348e-01 -3.520345e-01 -2.869923e-01 -2.136576e-01 -1.343804e-01 -5.149214e-02 3.269200e-02 1.158589e-01 1.956791e-01 2.697922e-01 3.358053e-01 3.913137e-01 4.339524e-01 4.614889e-01 4.719608e-01 4.638582e-01 4.363387e-01 3.894496e-01 3.243177e-01 2.432588e-01 1.497625e-01 4.832074e-02 -5.589614e-02 -1.574776e-01 -2.512542e-01 -3.327372e-01 -3.984428e-01 -4.460602e-01 -4.744618e-01 -4.835861e-01 -4.742431e-01 -4.177494e-01 -3.796970e-01 -3.293451e-01 -2.688179e-01 -2.003210e-01 -1.260901e-01 -4.836625e-02 3.061124e-02 1.085999e-01 1.833458e-01 2.525796e-01 3.140234e-01 3.654182e-01 4.045784e-01 4.294812e-01 4.383927e-01 4.300297e-01 4.037435e-01 3.597047e-01 2.990543e-01 2.239828e-01 1.377010e-01 4.428198e-02 -5.162319e-02 -1.451607e-01 -2.316838e-01 -3.071278e-01 -3.682919e-01 -4.129936e-01 -4.400920e-01 -4.494026e-01 -4.415430e-01 -3.880659e-01 -3.533104e-01 -3.069148e-01 -2.508288e-01 -1.871127e-01 -1.178842e-01 -4.528828e-02 2.851745e-02 1.013673e-01 1.710891e-01 2.355091e-01 2.924676e-01 3.398518e-01 3.756525e-01 3.980488e-01 4.055228e-01 3.970008e-01 3.720083e-01 3.308204e-01 2.745785e-01 2.053429e-01 1.260540e-01 4.038700e-02 -4.749482e-02 -1.332591e-01 -2.127498e-01 -2.823047e-01 -3.389984e-01 -3.807821e-01 -4.065165e-01 -4.159144e-01 -4.094212e-01 -3.599418e-01 -3.282578e-01 -2.855823e-01 -2.336994e-01 -1.745284e-01 -1.100700e-01 -4.237219e-02 2.649188e-02 9.443613e-02 1.593722e-01 2.192229e-01 2.719448e-01 3.155663e-01 3.482443e-01 3.683447e-01 3.745460e-01 3.659605e-01 3.422638e-01 3.038149e-01 2.517437e-01 1.879822e-01 1.152184e-01 3.676377e-02 -4.365976e-02 -1.221903e-01 -1.951162e-01 -2.591433e-01 -3.116034e-01 -3.505806e-01 -3.749505e-01 -3.843444e-01 -3.790599e-01 -3.343107e-01 -3.053813e-01 -2.660717e-01 -2.180151e-01 -1.629993e-01 -1.029146e-01 -3.971469e-02 2.460981e-02 8.805145e-02 1.486040e-01 2.042831e-01 2.531553e-01 2.933790e-01 3.232620e-01 3.413367e-01 3.464528e-01 3.378816e-01 3.154232e-01 2.795007e-01 2.312242e-01 1.724047e-01 1.055037e-01 3.351269e-02 -4.023194e-02 -1.122780e-01 -1.793019e-01 -2.383339e-01 -2.869376e-01 -3.233229e-01 -3.463893e-01 -3.557072e-01 -3.514518e-01 -3.119318e-01 -2.853723e-01 -2.489822e-01 -2.042628e-01 -1.528854e-01 -9.664014e-02 -3.739443e-02 2.293797e-02 8.242302e-02 1.391307e-01 1.911617e-01 2.366814e-01 2.739631e-01 3.014455e-01 3.178032e-01 3.220293e-01 3.135259e-01 2.921921e-01 2.584978e-01 2.135287e-01 1.589876e-01 9.714122e-02 3.071009e-02 -3.729308e-02 -1.037596e-01 -1.656918e-01 -2.203954e-01 -2.656337e-01 -2.997300e-01 -3.216125e-01 -3.308080e-01 -3.273950e-01 -2.933968e-01 -2.687751e-01 -2.347892e-01 -1.928311e-01 -1.444745e-01 -9.142403e-02 -3.547270e-02 2.153283e-02 7.772274e-02 1.312334e-01 1.802388e-01 2.229879e-01 2.578504e-01 2.833726e-01 2.983443e-01 3.018735e-01 2.934647e-01 2.730922e-01 2.412584e-01 1.990242e-01 1.480009e-01 9.029618e-02 2.841211e-02 -3.489794e-02 -9.679989e-02 -1.545576e-01 -2.056990e-01 -2.481514e-01 -2.803340e-01 -3.012041e-01 -3.102591e-01 -3.075045e-01 -2.791453e-01 -2.559982e-01 -2.238522e-01 -1.840156e-01 -1.379861e-01 -8.740133e-02 -3.399507e-02 2.043967e-02 7.408464e-02 1.251293e-01 1.718057e-01 2.124284e-01 2.454415e-01 2.694738e-01 2.834021e-01 2.864201e-01 2.781073e-01 2.584920e-01 2.280977e-01 1.879633e-01 1.396290e-01 8.508153e-02 2.665853e-02 -3.308069e-02 -9.150734e-02 -1.460812e-01 -1.944976e-01 -2.348087e-01 -2.655091e-01 -2.855814e-01 -2.945046e-01 -2.922319e-01 -2.694847e-01 -2.473294e-01 -2.164263e-01 -1.780269e-01 -1.335772e-01 -8.466843e-02 -3.299342e-02 1.969229e-02 7.160648e-02 1.209756e-01 1.660719e-01 2.052550e-01 2.370198e-01 2.600507e-01 2.732828e-01 2.759662e-01 2.677300e-01 2.486368e-01 2.192225e-01 1.805100e-01 1.339908e-01 8.157007e-02 2.547607e-02 -3.186100e-02 -8.794863e-02 -1.403768e-01 -1.869528e-01 -2.258130e-01 -2.555035e-01 -2.750255e-01 -2.838476e-01 -2.818896e-01 -2.646081e-01 -2.429511e-01 -2.126740e-01 -1.749999e-01 -1.313483e-01 -8.328700e-02 -3.248778e-02 1.931304e-02 7.035178e-02 1.188739e-01 1.631721e-01 2.016292e-01 2.327655e-01 2.552935e-01 2.681774e-01 2.706957e-01 2.625015e-01 2.436745e-01 2.147563e-01 1.767611e-01 1.311557e-01 7.980456e-02 2.488100e-02 -3.124904e-02 -8.616104e-02 -1.375100e-01 -1.831590e-01 -2.212869e-01 -2.504660e-01 -2.697073e-01 -2.784748e-01 -2.766720e-01 -2.694847e-01 -2.473294e-01 -2.164263e-01 -1.780269e-01 -1.335772e-01 -8.466843e-02 -3.299342e-02 1.969229e-02 7.160648e-02 1.209756e-01 1.660719e-01 2.052550e-01 2.370198e-01 2.600507e-01 2.732828e-01 2.759662e-01 2.677300e-01 2.486368e-01 2.192225e-01 1.805100e-01 1.339908e-01 8.157007e-02 2.547607e-02 -3.186100e-02 -8.794863e-02 -1.403768e-01 -1.869528e-01 -2.258130e-01 -2.555035e-01 -2.750255e-01 -2.838476e-01 -2.818896e-01 -2.746177e-01 -2.519290e-01 -2.203613e-01 -1.811966e-01 -1.359082e-01 -8.611176e-02 -3.352122e-02 2.008869e-02 7.291742e-02 1.231725e-01 1.691055e-01 2.090527e-01 2.414822e-01 2.650489e-01 2.786566e-01 2.815246e-01 2.732548e-01 2.538904e-01 2.239595e-01 1.844926e-01 1.370065e-01 8.344976e-02 2.610949e-02 -3.251422e-02 -8.985486e-02 -1.434316e-01 -1.909909e-01 -2.306237e-01 -2.608487e-01 -2.806577e-01 -2.895262e-01 -2.873926e-01 -2.847942e-01 -2.610423e-01 -2.281537e-01 -1.874709e-01 -1.405216e-01 -8.896853e-02 -3.456729e-02 2.087022e-02 7.550783e-02 1.275164e-01 1.751071e-01 2.165702e-01 2.503212e-01 2.749562e-01 2.893164e-01 2.925592e-01 2.842313e-01 2.643358e-01 2.333841e-01 1.924207e-01 1.430123e-01 8.719362e-02 2.737002e-02 -3.381817e-02 -9.365547e-02 -1.495187e-01 -1.990327e-01 -2.401978e-01 -2.714786e-01 -2.918498e-01 -3.008011e-01 -2.983107e-01 -2.998269e-01 -2.744904e-01 -2.396427e-01 -1.967158e-01 -1.473167e-01 -9.317698e-02 -3.611171e-02 2.201407e-02 7.931349e-02 1.339049e-01 1.839415e-01 2.276467e-01 2.633585e-01 2.895861e-01 3.050770e-01 3.088947e-01 3.005017e-01 2.798381e-01 2.473870e-01 2.042112e-01 1.519501e-01 9.276670e-02 2.924399e-02 -3.576575e-02 -9.932183e-02 -1.585861e-01 -2.110002e-01 -2.544298e-01 -2.872609e-01 -3.084450e-01 -3.174974e-01 -3.144579e-01 -3.194141e-01 -2.919878e-01 -2.545736e-01 -2.087197e-01 -1.561355e-01 -9.863997e-02 -3.812254e-02 2.348568e-02 8.423510e-02 1.421789e-01 1.953973e-01 2.420284e-01 2.803109e-01 3.086396e-01 3.256380e-01 3.302434e-01 3.218028e-01 3.001681e-01 2.657793e-01 2.197181e-01 1.637165e-01 1.001066e-01 3.170837e-02 -3.834136e-02 -1.067987e-01 -1.705367e-01 -2.267527e-01 -2.731347e-01 -3.079683e-01 -3.301802e-01 -3.393256e-01 -3.355313e-01 -3.431179e-01 -3.131249e-01 -2.725836e-01 -2.231834e-01 -1.667554e-01 -1.052204e-01 -4.055374e-02 2.523848e-02 9.013567e-02 1.521169e-01 2.091779e-01 2.593571e-01 3.007738e-01 3.316846e-01 3.505593e-01 3.561769e-01 3.477361e-01 3.249724e-01 2.882638e-01 2.387073e-01 1.781435e-01 1.091120e-01 3.472770e-02 -4.151493e-02 -1.159901e-01 -1.852074e-01 -2.460598e-01 -2.960173e-01 -3.332472e-01 -3.566546e-01 -3.658529e-01 -3.610854e-01 -3.703403e-01 -3.373488e-01 -2.931883e-01 -2.397100e-01 -1.788816e-01 -1.127366e-01 -4.334277e-02 2.721408e-02 9.683834e-02 1.634300e-01 2.248937e-01 2.791571e-01 3.242047e-01 3.581337e-01 3.792338e-01 3.860941e-01 3.777324e-01 3.537364e-01 3.143994e-01 2.608253e-01 1.949746e-01 1.196277e-01 3.825012e-02 -4.523460e-02 -1.267408e-01 -2.023418e-01 -2.685678e-01 -3.226347e-01 -3.625790e-01 -3.872922e-01 -3.964698e-01 -3.905029e-01 -4.003020e-01 -3.639478e-01 -3.157697e-01 -2.577965e-01 -1.921426e-01 -1.209591e-01 -4.640865e-02 2.934307e-02 1.041257e-01 1.757599e-01 2.420564e-01 3.008261e-01 3.499086e-01 3.872248e-01 4.108618e-01 4.191906e-01 4.110157e-01 3.857457e-01 3.435632e-01 2.855651e-01 2.138370e-01 1.314274e-01 4.220243e-02 -4.941873e-02 -1.388167e-01 -2.215599e-01 -2.937625e-01 -3.523560e-01 -3.952395e-01 -4.213048e-01 -4.303568e-01 -4.229676e-01 -4.320301e-01 -3.920438e-01 -3.395727e-01 -2.768326e-01 -2.060888e-01 -1.296099e-01 -4.965085e-02 3.154668e-02 1.117420e-01 1.886799e-01 2.600793e-01 3.236337e-01 3.770323e-01 4.180098e-01 4.444339e-01 4.544344e-01 4.465746e-01 4.200534e-01 3.749154e-01 3.122331e-01 2.342148e-01 1.441963e-01 4.648444e-02 -5.394882e-02 -1.518858e-01 -2.423299e-01 -3.209349e-01 -3.843255e-01 -4.302640e-01 -4.576609e-01 -4.664597e-01 -4.574460e-01 -4.643612e-01 -4.205987e-01 -3.637129e-01 -2.961086e-01 -2.201992e-01 -1.383662e-01 -5.294993e-02 3.373942e-02 1.193983e-01 2.017031e-01 2.782867e-01 3.467297e-01 4.045720e-01 4.493589e-01 4.787302e-01 4.905595e-01 4.831481e-01 4.554601e-01 4.073767e-01 3.399253e-01 2.554284e-01 1.575166e-01 5.096326e-02 -5.866517e-02 -1.655042e-01 -2.639473e-01 -3.491570e-01 -4.174394e-01 -4.664272e-01 -4.950713e-01 -5.034820e-01 -4.926859e-01 -4.959674e-01 -4.484407e-01 -3.872006e-01 -3.148348e-01 -2.338963e-01 -1.468695e-01 -5.617034e-02 3.583261e-02 1.267829e-01 2.142979e-01 2.959345e-01 3.691686e-01 4.313989e-01 4.799863e-01 5.123438e-01 5.260855e-01 5.192402e-01 4.905220e-01 4.396289e-01 3.675235e-01 2.766274e-01 1.708602e-01 5.546889e-02 -6.336778e-02 -1.791141e-01 -2.855315e-01 -3.772793e-01 -4.503464e-01 -5.022501e-01 -5.320027e-01 -5.399039e-01 -5.272398e-01 -5.254100e-01 -4.743123e-01 -4.089825e-01 -3.321759e-01 -2.465707e-01 -1.547412e-01 -5.916608e-02 3.773865e-02 1.335746e-01 2.259114e-01 3.122417e-01 3.899498e-01 4.563064e-01 5.085021e-01 5.437358e-01 5.593713e-01 5.531705e-01 5.235951e-01 4.701516e-01 3.937222e-01 2.968079e-01 1.835974e-01 5.979362e-02 -6.782439e-02 -1.920588e-01 -3.060481e-01 -4.039611e-01 -4.814868e-01 -5.360459e-01 -5.667295e-01 -5.740382e-01 -5.595209e-01 -5.512225e-01 -4.969438e-01 -4.280021e-01 -3.472983e-01 -2.576163e-01 -1.616037e-01 -6.178917e-02 3.937562e-02 1.394611e-01 2.360006e-01 3.264355e-01 4.080744e-01 4.780792e-01 5.334922e-01 5.713228e-01 5.887094e-01 5.831688e-01 5.529270e-01 4.973044e-01 4.170963e-01 3.148620e-01 1.950246e-01 6.369849e-02 -7.178647e-02 -2.036203e-01 -3.243661e-01 -4.277445e-01 -5.091791e-01 -5.660157e-01 -5.974330e-01 -6.041273e-01 -5.878954e-01 -5.720190e-01 -5.151436e-01 -4.432745e-01 -3.594283e-01 -2.664713e-01 -1.671069e-01 -6.390033e-02 4.067179e-02 1.441585e-01 2.440675e-01 3.378024e-01 4.226141e-01 4.955789e-01 5.536208e-01 5.935952e-01 6.124551e-01 6.075127e-01 5.767938e-01 5.194568e-01 4.362149e-01 3.296656e-01 2.044193e-01 6.692973e-02 -7.501190e-02 -2.130795e-01 -3.393516e-01 -4.471747e-01 -5.317573e-01 -5.903934e-01 -6.223448e-01 -6.284795e-01 -6.108053e-01 -5.866146e-01 -5.278990e-01 -4.539662e-01 -3.679132e-01 -2.726629e-01 -1.709558e-01 -6.538088e-02 4.156958e-02 1.474316e-01 2.496969e-01 3.457443e-01 4.327857e-01 5.078391e-01 5.677457e-01 6.092523e-01 6.291799e-01 6.246933e-01 5.936723e-01 5.351551e-01 4.497905e-01 3.401978e-01 2.111179e-01 6.924667e-02 -7.729085e-02 -2.197940e-01 -3.499897e-01 -4.609544e-01 -5.477454e-01 -6.076251e-01 -6.399209e-01 -6.456286e-01 -6.269100e-01 -5.941418e-01 -5.344716e-01 -4.594716e-01 -3.722801e-01 -2.758487e-01 -1.729365e-01 -6.614408e-02 4.202880e-02 1.491121e-01 2.525898e-01 3.498287e-01 4.380211e-01 5.141552e-01 5.750297e-01 6.173355e-01 6.378247e-01 6.335849e-01 6.024188e-01 5.433005e-01 4.568434e-01 3.456764e-01 2.146072e-01 7.045819e-02 -7.847035e-02 -2.232806e-01 -3.555144e-01 -4.681065e-01 -5.560361e-01 -6.165509e-01 -6.490146e-01 -6.544912e-01 -6.352238e-01 -5.941418e-01 -5.344716e-01 -4.594716e-01 -3.722801e-01 -2.758487e-01 -1.729365e-01 -6.614408e-02 4.202880e-02 1.491121e-01 2.525898e-01 3.498287e-01 4.380211e-01 5.141552e-01 5.750297e-01 6.173355e-01 6.378247e-01 6.335849e-01 6.024188e-01 5.433005e-01 4.568434e-01 3.456764e-01 2.146072e-01 7.045819e-02 -7.847035e-02 -2.232806e-01 -3.555144e-01 -4.681065e-01 -5.560361e-01 -6.165509e-01 -6.490146e-01 -6.544912e-01 -6.352238e-01 -5.866146e-01 -5.278990e-01 -4.539662e-01 -3.679132e-01 -2.726629e-01 -1.709558e-01 -6.538088e-02 4.156958e-02 1.474316e-01 2.496969e-01 3.457443e-01 4.327857e-01 5.078391e-01 5.677457e-01 6.092523e-01 6.291799e-01 6.246933e-01 5.936723e-01 5.351551e-01 4.497905e-01 3.401978e-01 2.111179e-01 6.924667e-02 -7.729085e-02 -2.197940e-01 -3.499897e-01 -4.609544e-01 -5.477454e-01 -6.076251e-01 -6.399209e-01 -6.456286e-01 -6.269100e-01 -5.720190e-01 -5.151436e-01 -4.432745e-01 -3.594283e-01 -2.664713e-01 -1.671069e-01 -6.390033e-02 4.067179e-02 1.441585e-01 2.440675e-01 3.378024e-01 4.226141e-01 4.955789e-01 5.536208e-01 5.935952e-01 6.124551e-01 6.075127e-01 5.767938e-01 5.194568e-01 4.362149e-01 3.296656e-01 2.044193e-01 6.692973e-02 -7.501190e-02 -2.130795e-01 -3.393516e-01 -4.471747e-01 -5.317573e-01 -5.903934e-01 -6.223448e-01 -6.284795e-01 -6.108053e-01 -5.512225e-01 -4.969438e-01 -4.280021e-01 -3.472983e-01 -2.576163e-01 -1.616037e-01 -6.178917e-02 3.937562e-02 1.394611e-01 2.360006e-01 3.264355e-01 4.080744e-01 4.780792e-01 5.334922e-01 5.713228e-01 5.887094e-01 5.831688e-01 5.529270e-01 4.973044e-01 4.170963e-01 3.148620e-01 1.950246e-01 6.369849e-02 -7.178647e-02 -2.036203e-01 -3.243661e-01 -4.277445e-01 -5.091791e-01 -5.660157e-01 -5.974330e-01 -6.041273e-01 -5.878954e-01 -5.254100e-01 -4.743123e-01 -4.089825e-01 -3.321759e-01 -2.465707e-01 -1.547412e-01 -5.916608e-02 3.773865e-02 1.335746e-01 2.259114e-01 3.122417e-01 3.899498e-01 4.563064e-01 5.085021e-01 5.437358e-01 5.593713e-01 5.531705e-01 5.235951e-01 4.701516e-01 3.937221e-01 2.968079e-01 1.835974e-01 5.979362e-02 -6.782439e-02 -1.920588e-01 -3.060481e-01 -4.039611e-01 -4.814868e-01 -5.360459e-01 -5.667295e-01 -5.740382e-01 -5.595209e-01 -4.959674e-01 -4.484407e-01 -3.872006e-01 -3.148348e-01 -2.338963e-01 -1.468695e-01 -5.617034e-02 3.583261e-02 1.267829e-01 2.142979e-01 2.959345e-01 3.691686e-01 4.313989e-01 4.799863e-01 5.123438e-01 5.260855e-01 5.192402e-01 4.905220e-01 4.396289e-01 3.675235e-01 2.766274e-01 1.708602e-01 5.546888e-02 -6.336778e-02 -1.791141e-01 -2.855315e-01 -3.772793e-01 -4.503464e-01 -5.022501e-01 -5.320027e-01 -5.399039e-01 -5.272398e-01 -4.643612e-01 -4.205987e-01 -3.637129e-01 -2.961086e-01 -2.201992e-01 -1.383662e-01 -5.294993e-02 3.373942e-02 1.193983e-01 2.017031e-01 2.782867e-01 3.467297e-01 4.045720e-01 4.493589e-01 4.787302e-01 4.905595e-01 4.831481e-01 4.554601e-01 4.073767e-01 3.399253e-01 2.554284e-01 1.575166e-01 5.096326e-02 -5.866517e-02 -1.655042e-01 -2.639473e-01 -3.491570e-01 -4.174394e-01 -4.664272e-01 -4.950713e-01 -5.034820e-01 -4.926859e-01 -4.320301e-01 -3.920438e-01 -3.395727e-01 -2.768326e-01 -2.060888e-01 -1.296099e-01 -4.965085e-02 3.154668e-02 1.117420e-01 1.886799e-01 2.600793e-01 3.236337e-01 3.770323e-01 4.180098e-01 4.444339e-01 4.544344e-01 4.465746e-01 4.200534e-01 3.749154e-01 3.122331e-01 2.342148e-01 1.441963e-01 4.648444e-02 -5.394882e-02 -1.518858e-01 -2.423299e-01 -3.209349e-01 -3.843255e-01 -4.302640e-01 -4.576609e-01 -4.664597e-01 -4.574460e-01 -4.003020e-01 -3.639478e-01 -3.157697e-01 -2.577965e-01 -1.921426e-01 -1.209591e-01 -4.640865e-02 2.934307e-02 1.041257e-01 1.757599e-01 2.420564e-01 3.008261e-01 3.499086e-01 3.872248e-01 4.108618e-01 4.191906e-01 4.110157e-01 3.857457e-01 3.435632e-01 2.855651e-01 2.138370e-01 1.314274e-01 4.220243e-02 -4.941873e-02 -1.388167e-01 -2.215599e-01 -2.937625e-01 -3.523560e-01 -3.952395e-01 -4.213048e-01 -4.303568e-01 -4.229676e-01 -3.703403e-01 -3.373488e-01 -2.931883e-01 -2.397100e-01 -1.788816e-01 -1.127366e-01 -4.334277e-02 2.721408e-02 9.683834e-02 1.634300e-01 2.248937e-01 2.791571e-01 3.242047e-01 3.581337e-01 3.792338e-01 3.860941e-01 3.777324e-01 3.537364e-01 3.143994e-01 2.608253e-01 1.949746e-01 1.196277e-01 3.825012e-02 -4.523460e-02 -1.267408e-01 -2.023418e-01 -2.685678e-01 -3.226347e-01 -3.625790e-01 -3.872922e-01 -3.964698e-01 -3.905029e-01 -3.431179e-01 -3.131249e-01 -2.725836e-01 -2.231834e-01 -1.667554e-01 -1.052204e-01 -4.055374e-02 2.523848e-02 9.013567e-02 1.521169e-01 2.091779e-01 2.593571e-01 3.007738e-01 3.316846e-01 3.505593e-01 3.561768e-01 3.477361e-01 3.249724e-01 2.882638e-01 2.387073e-01 1.781435e-01 1.091120e-01 3.472770e-02 -4.151493e-02 -1.159901e-01 -1.852074e-01 -2.460598e-01 -2.960173e-01 -3.332472e-01 -3.566546e-01 -3.658529e-01 -3.610854e-01 -3.194141e-01 -2.919878e-01 -2.545736e-01 -2.087197e-01 -1.561355e-01 -9.863997e-02 -3.812254e-02 2.348568e-02 8.423510e-02 1.421789e-01 1.953973e-01 2.420284e-01 2.803108e-01 3.086396e-01 3.256380e-01 3.302434e-01 3.218028e-01 3.001681e-01 2.657793e-01 2.197181e-01 1.637165e-01 1.001066e-01 3.170837e-02 -3.834136e-02 -1.067987e-01 -1.705367e-01 -2.267527e-01 -2.731347e-01 -3.079683e-01 -3.301802e-01 -3.393256e-01 -3.355313e-01 -2.998269e-01 -2.744904e-01 -2.396427e-01 -1.967158e-01 -1.473167e-01 -9.317698e-02 -3.611171e-02 2.201407e-02 7.931349e-02 1.339049e-01 1.839415e-01 2.276467e-01 2.633585e-01 2.895861e-01 3.050770e-01 3.088947e-01 3.005017e-01 2.798381e-01 2.473870e-01 2.042112e-01 1.519501e-01 9.276670e-02 2.924399e-02 -3.576575e-02 -9.932183e-02 -1.585861e-01 -2.110002e-01 -2.544298e-01 -2.872609e-01 -3.084450e-01 -3.174974e-01 -3.144579e-01 -2.847942e-01 -2.610423e-01 -2.281537e-01 -1.874709e-01 -1.405216e-01 -8.896853e-02 -3.456729e-02 2.087022e-02 7.550783e-02 1.275164e-01 1.751071e-01 2.165702e-01 2.503212e-01 2.749562e-01 2.893164e-01 2.925592e-01 2.842313e-01 2.643358e-01 2.333841e-01 1.924207e-01 1.430123e-01 8.719362e-02 2.737002e-02 -3.381817e-02 -9.365548e-02 -1.495187e-01 -1.990327e-01 -2.401978e-01 -2.714786e-01 -2.918498e-01 -3.008011e-01 -2.983107e-01 -2.746177e-01 -2.519290e-01 -2.203613e-01 -1.811966e-01 -1.359082e-01 -8.611176e-02 -3.352122e-02 2.008869e-02 7.291742e-02 1.231725e-01 1.691055e-01 2.090527e-01 2.414822e-01 2.650489e-01 2.786566e-01 2.815246e-01 2.732548e-01 2.538904e-01 2.239595e-01 1.844926e-01 1.370065e-01 8.344976e-02 2.610949e-02 -3.251422e-02 -8.985486e-02 -1.434316e-01 -1.909909e-01 -2.306237e-01 -2.608487e-01 -2.806577e-01 -2.895262e-01 -2.873926e-01 -2.694847e-01 -2.473294e-01 -2.164263e-01 -1.780269e-01 -1.335772e-01 -8.466843e-02 -3.299342e-02 1.969229e-02 7.160648e-02 1.209756e-01 1.660719e-01 2.052550e-01 2.370198e-01 2.600507e-01 2.732828e-01 2.759662e-01 2.677300e-01 2.486368e-01 2.192225e-01 1.805100e-01 1.339908e-01 8.157007e-02 2.547607e-02 -3.186100e-02 -8.794863e-02 -1.403768e-01 -1.869528e-01 -2.258130e-01 -2.555035e-01 -2.750255e-01 -2.838476e-01 -2.818896e-01 -2.791453e-01 -2.559982e-01 -2.238522e-01 -1.840156e-01 -1.379861e-01 -8.740133e-02 -3.399507e-02 2.043967e-02 7.408464e-02 1.251293e-01 1.718057e-01 2.124284e-01 2.454415e-01 2.694738e-01 2.834021e-01 2.864201e-01 2.781073e-01 2.584920e-01 2.280977e-01 1.879633e-01 1.396290e-01 8.508153e-02 2.665853e-02 -3.308069e-02 -9.150734e-02 -1.460812e-01 -1.944976e-01 -2.348087e-01 -2.655091e-01 -2.855814e-01 -2.945046e-01 -2.922319e-01 -2.847942e-01 -2.610423e-01 -2.281537e-01 -1.874709e-01 -1.405216e-01 -8.896853e-02 -3.456729e-02 2.087022e-02 7.550783e-02 1.275164e-01 1.751071e-01 2.165702e-01 2.503212e-01 2.749562e-01 2.893164e-01 2.925592e-01 2.842313e-01 2.643358e-01 2.333841e-01 1.924207e-01 1.430123e-01 8.719362e-02 2.737002e-02 -3.381817e-02 -9.365547e-02 -1.495187e-01 -1.990327e-01 -2.401978e-01 -2.714786e-01 -2.918498e-01 -3.008011e-01 -2.983107e-01 -2.960104e-01 -2.710496e-01 -2.366821e-01 -1.943181e-01 -1.455443e-01 -9.207331e-02 -3.570246e-02 2.171967e-02 7.832234e-02 1.322405e-01 1.816447e-01 2.247776e-01 2.599981e-01 2.858374e-01 3.010653e-01 3.047664e-01 2.964201e-01 2.759779e-01 2.439249e-01 2.013150e-01 1.497670e-01 9.141161e-02 2.878983e-02 -3.529426e-02 -9.795014e-02 -1.563871e-01 -2.080880e-01 -2.509493e-01 -2.833772e-01 -3.043318e-01 -3.133267e-01 -3.103914e-01 -3.126197e-01 -2.858492e-01 -2.492806e-01 -2.044246e-01 -1.529543e-01 -9.665399e-02 -3.738098e-02 2.296440e-02 8.246271e-02 1.391980e-01 1.912829e-01 2.368910e-01 2.742983e-01 3.019396e-01 3.184777e-01 3.228864e-01 3.145418e-01 2.933134e-01 2.596430e-01 2.145946e-01 1.598616e-01 9.771834e-02 3.091054e-02 -3.750875e-02 -1.043821e-01 -1.666639e-01 -2.216214e-01 -2.669965e-01 -3.011095e-01 -3.229035e-01 -3.319324e-01 -3.283077e-01 -3.343343e-01 -3.051626e-01 -2.656965e-01 -2.175783e-01 -1.625919e-01 -1.026123e-01 -3.957098e-02 2.456830e-02 8.782677e-02 1.482261e-01 2.038070e-01 2.526553e-01 2.929407e-01 3.229714e-01 3.412679e-01 3.466543e-01 3.383643e-01 3.161517e-01 2.803921e-01 2.321553e-01 1.732289e-01 1.060762e-01 3.371812e-02 -4.045485e-02 -1.129223e-01 -1.802920e-01 -2.395413e-01 -2.882057e-01 -3.244970e-01 -3.473435e-01 -3.563614e-01 