<VTKFile type="PolyData">
<PolyData>
<Piece NumberOfPoints="26" NumberOfVerts="0" NumberOfLines="0" NumberOfStrips="0" NumberOfPolys="0">
<Points>
<DataArray type="Float32" NumberOfComponents="3" format="ascii">
-1.907605 0.000000 0.000000 0.892395 1.200000 0.000000 -0.307605 0.000000 0.000000 0.892395 -1.200000 0.000000 0.892395 0.000000 1.200000 0.892395 0.000000 -1.200000 1.740923 0.848528 0.000000 0.043867 0.848528 0.000000 0.043867 -0.848528 0.000000 1.740923 -0.848528 0.000000 1.740923 0.000000 0.848528 0.892395 0.848528 0.848528 0.043867 0.000000 0.848528 0.892395 -0.848528 0.848528 1.740923 0.000000 -0.848528 0.892395 0.848528 -0.848528 0.043867 0.000000 -0.848528 0.892395 -0.848528 -0.848528 1.585216 0.692820 0.692820 0.199575 0.692820 0.692820 0.199575 -0.692820 0.692820 1.585216 -0.692820 0.692820 1.585216 0.692820 -0.692820 0.199575 0.692820 -0.692820 0.199575 -0.692820 -0.692820 1.585216 -0.692820 -0.692820 
</DataArray>
</Points>
<PointData Scalars="n status">
<DataArray type="Int32" Name="n" format="ascii">
0 0 0 0 0 0 0 0 0 0 0 0 0 0 0 0 0 0 0 0 0 0 0 0 0 0 
</DataArray>
<DataArray type="Int32" Name="status" format="ascii">
-1 -1 -1 -1 -1 -1 -1 -1 -1 -1 -1 -1 -1 -1 -1 -1 -1 -1 -1 -1 -1 -1 -1 -1 -1 -1 
</DataArray>
</PointData>
</Piece>
</PolyData>
</VTKFile>
