<VTKFile type="RectilinearGrid">
<RectilinearGrid WholeExtent="0 32 0 32 0 32" GhostLevel="0">
<Piece Extent="0 32 0 32 0 32">
<CellData Scalars="p phase" Vectors="vel">
<DataArray type="Float32" Name="p">
-2.371504e-01 -2.099419e-01 -1.755419e-01 -1.352327e-01 -9.044106e-02 -4.270065e-02 6.381040e-03 5.515441e-02 1.019596e-01 1.451609e-01 1.831856e-01 2.145696e-01 2.380102e-01 2.524258e-01 2.570208e-01 2.513502e-01 2.353781e-01 2.095212e-01 1.746683e-01 1.321676e-01 8.377743e-02 3.157978e-02 -2.213666e-02 -7.501349e-02 -1.247642e-01 -1.693052e-01 -2.068623e-01 -2.360459e-01 -2.558901e-01 -2.658604e-01 -2.658354e-01 -2.560702e-01 -2.414547e-01 -2.136712e-01 -1.785986e-01 -1.375444e-01 -9.195745e-02 -4.339141e-02 6.528255e-03 5.613477e-02 1.037509e-01 1.477219e-01 1.864542e-01 2.184596e-01 2.424089e-01 2.571923e-01 2.619862e-01 2.563204e-01 2.401400e-01 2.138530e-01 1.783531e-01 1.350088e-01 8.561549e-02 3.230652e-02 -2.256761e-02 -7.658215e-02 -1.273864e-01 -1.728407e-01 -2.111283e-01 -2.408328e-01 -2.609774e-01 -2.710314e-01 -2.708880e-01 -2.608250e-01 -2.499729e-01 -2.210486e-01 -1.846442e-01 -1.421163e-01 -9.495751e-02 -4.476023e-02 6.815034e-03 5.806816e-02 1.072879e-01 1.527828e-01 1.929178e-01 2.261575e-01 2.511201e-01 2.666395e-01 2.718355e-01 2.661870e-01 2.496006e-01 2.224658e-01 1.856845e-01 1.406658e-01 8.927842e-02 3.375845e-02 -2.341965e-02 -7.969787e-02 -1.325966e-01 -1.798645e-01 -2.196000e-01 -2.503336e-01 -2.710683e-01 -2.812815e-01 -2.808972e-01 -2.702390e-01 -2.625178e-01 -2.319071e-01 -1.935393e-01 -1.488428e-01 -9.937390e-02 -4.678057e-02 7.226455e-03 6.089938e-02 1.124783e-01 1.602190e-01 2.024257e-01 2.374944e-01 2.639651e-01 2.805877e-01 2.863968e-01 2.807935e-01 2.636244e-01 2.352488e-01 1.965788e-01 1.490822e-01 9.473637e-02 3.593154e-02 -2.467116e-02 -8.431291e-02 -1.403201e-01 -1.902739e-01 -2.321466e-01 -2.643919e-01 -2.859847e-01 -2.964176e-01 -2.956629e-01 -2.841140e-01 -2.787946e-01 -2.459847e-01 -2.050659e-01 -1.575591e-01 -1.051010e-01 -4.940987e-02 7.741044e-03 6.454469e-02 1.191806e-01 1.698376e-01 2.147436e-01 2.522052e-01 2.806610e-01 2.987496e-01 3.053916e-01 2.998824e-01 2.819853e-01 2.520146e-01 2.108918e-01 1.601587e-01 1.019356e-01 3.881740e-02 -2.628534e-02 -9.034481e-02 -1.504280e-01 -2.038938e-01 -2.485489e-01 -2.827485e-01 -3.054355e-01 -3.161274e-01 -3.148646e-01 -3.021353e-01 -2.983867e-01 -2.629135e-01 -2.189191e-01 -1.680345e-01 -1.119906e-01 -5.258678e-02 8.332019e-03 6.889119e-02 1.272008e-01 1.813727e-01 2.295447e-01 2.699171e-01 3.008053e-01 3.207111e-01 3.284129e-01 3.230714e-01 3.043411e-01 2.724740e-01 2.283961e-01 1.737359e-01 1.107875e-01 4.239935e-02 -2.820640e-02 -9.766530e-02 -1.627205e-01 -2.204549e-01 -2.684736e-01 -3.050155e-01 -3.289910e-01 -3.399561e-01 -3.380407e-01 -3.238545e-01 -3.207420e-01 -2.822090e-01 -2.346994e-01 -1.799670e-01 -1.198474e-01 -5.622813e-02 8.968932e-03 7.379702e-02 1.362917e-01 1.944809e-01 2.464027e-01 2.901376e-01 3.238596e-01 3.459106e-01 3.548998e-01 3.498245e-01 3.302035e-01 2.962062e-01 2.487547e-01 1.895720e-01 1.211532e-01 4.664605e-02 -3.035671e-02 -1.060886e-01 -1.769070e-01 -2.395691e-01 -2.914460e-01 -3.306474e-01 -3.560558e-01 -3.672816e-01 -3.645682e-01 -3.486722e-01 -3.451644e-01 -3.032646e-01 -2.519077e-01 -1.929799e-01 -1.284266e-01 -6.022656e-02 9.619875e-03 7.909292e-02 1.461524e-01 2.087396e-01 2.647873e-01 3.122469e-01 3.491371e-01 3.736208e-01 3.841140e-01 3.794239e-01 3.589065e-01 3.226264e-01 2.714895e-01 2.073166e-01 1.328253e-01 5.150164e-02 -3.263691e-02 -1.153623e-01 -1.925898e-01 -2.607071e-01 -3.168248e-01 -3.589167e-01 -3.858453e-01 -3.972950e-01 -3.936462e-01 -3.758264e-01 -3.708145e-01 -3.253529e-01 -2.699484e-01 -2.066233e-01 -1.374340e-01 -6.444939e-02 1.025389e-02 8.458579e-02 1.564328e-01 2.236504e-01 2.840657e-01 3.354964e-01 3.757972e-01 4.029386e-01 4.151247e-01 4.109494e-01 3.895812e-01 3.509577e-01 2.959537e-01 2.264853e-01 1.455065e-01 5.687262e-02 -3.493086e-02 -1.251645e-01 -2.092549e-01 -2.831852e-01 -3.437879e-01 -3.888995e-01 -4.173751e-01 -4.289927e-01 -4.242916e-01 -4.043903e-01 -3.967241e-01 -3.476393e-01 -2.881398e-01 -2.203824e-01 -1.465309e-01 -6.873984e-02 1.084352e-02 9.006447e-02 1.667417e-01 2.386501e-01 3.035138e-01 3.590187e-01 4.028534e-01 4.327892e-01 4.468070e-01 4.432711e-01 4.211433e-01 3.802140e-01 3.213111e-01 2.464387e-01 1.587917e-01 6.261260e-02 -3.711620e-02 -1.351098e-01 -2.262746e-01 -3.061677e-01 -3.713349e-01 -4.194810e-01 -4.494686e-01 -4.611874e-01 -4.553528e-01 -4.332879e-01 -4.218277e-01 -3.692095e-01 -3.057369e-01 -2.336941e-01 -1.553449e-01 -7.292115e-02 1.136685e-02 9.530789e-02 1.766609e-01 2.531280e-01 3.223386e-01 3.818530e-01 4.291985e-01 4.619501e-01 4.778632e-01 4.750664e-01 4.523038e-01 4.092046e-01 3.465352e-01 2.663759e-01 1.721567e-01 6.850893e-02 -3.907983e-02 -1.447670e-01 -2.429283e-01 -3.286894e-01 -3.983141e-01 -4.493865e-01 -4.807915e-01 -4.925440e-01 -4.855454e-01 -4.613275e-01 -4.450118e-01 -3.891113e-01 -3.219650e-01 -2.459725e-01 -1.634859e-01 -7.680435e-02 1.180881e-02 1.000952e-01 1.857637e-01 2.664543e-01 3.397123e-01 4.029849e-01 4.536510e-01 4.891002e-01 5.068729e-01 5.048678e-01 4.816125e-01 4.365703e-01 3.704360e-01 2.853512e-01 1.849641e-01 7.427679e-02 -4.073470e-02 -1.536864e-01 -2.584387e-01 -3.497028e-01 -4.234768e-01 -4.772408e-01 -5.099138e-01 -5.216423e-01 -5.135122e-01 -4.872579e-01 -4.651789e-01 -4.064086e-01 -3.360637e-01 -2.566416e-01 -1.705687e-01 -8.019915e-02 1.216135e-02 1.042174e-01 1.936382e-01 2.780132e-01 3.548183e-01 4.214042e-01 4.750209e-01 5.128947e-01 5.323730e-01 5.311456e-01 5.075388e-01 4.608581e-01 3.917234e-01 3.023222e-01 1.964923e-01 7.956812e-02 -4.203229e-02 -1.614323e-01 -2.720238e-01 -3.681436e-01 -4.455549e-01 -5.016525e-01 -5.353969e-01 -5.470615e-01 -5.379034e-01 -5.098404e-01 -4.813208e-01 -4.202438e-01 -3.473365e-01 -2.651736e-01 -1.762387e-01 -8.292767e-02 1.242236e-02 1.074889e-01 1.999121e-01 2.872435e-01 3.669057e-01 4.361735e-01 4.921943e-01 5.320622e-01 5.529666e-01 5.524234e-01 5.285897e-01 4.806347e-01 4.091097e-01 3.162330e-01 2.059945e-01 8.400039e-02 -4.296513e-02 -1.676163e-01 -2.829560e-01 -3.830115e-01 -4.633548e-01 -5.213161e-01 -5.558968e-01 -5.674808e-01 -5.574697e-01 -5.279336e-01 -4.925944e-01 -4.299011e-01 -3.552031e-01 -2.711283e-01 -1.801990e-01 -8.483915e-02 1.259354e-02 1.097590e-01 2.042786e-01 2.936787e-01 3.753457e-01 4.465026e-01 5.042249e-01 5.455143e-01 5.674474e-01 5.674158e-01 5.434536e-01 4.946296e-01 4.214419e-01 3.261276e-01 2.127822e-01 8.720535e-02 -4.355654e-02 -1.719240e-01 -2.906208e-01 -3.934528e-01 -4.758563e-01 -5.351177e-01 -5.702710e-01 -5.817823e-01 -5.711589e-01 -5.405798e-01 -4.983910e-01 -4.348649e-01 -3.592458e-01 -2.741886e-01 -1.822354e-01 -8.582382e-02 1.267803e-02 1.109216e-01 2.065188e-01 2.969839e-01 3.796847e-01 4.518179e-01 5.104226e-01 5.524521e-01 5.749249e-01 5.751673e-01 5.511489e-01 5.018851e-01 4.278450e-01 3.312741e-01 2.163222e-01 8.888953e-02 -4.384049e-02 -1.741348e-01 -2.945715e-01 -3.988406e-01 -4.823079e-01 -5.422374e-01 -5.776813e-01 -5.891496e-01 -5.782056e-01 -5.470855e-01 -4.983910e-01 -4.348649e-01 -3.592458e-01 -2.741886e-01 -1.822354e-01 -8.582382e-02 1.267803e-02 1.109216e-01 2.065188e-01 2.969839e-01 3.796847e-01 4.518179e-01 5.104226e-01 5.524521e-01 5.749249e-01 5.751673e-01 5.511489e-01 5.018851e-01 4.278450e-01 3.312741e-01 2.163222e-01 8.888953e-02 -4.384050e-02 -1.741348e-01 -2.945715e-01 -3.988406e-01 -4.823079e-01 -5.422374e-01 -5.776813e-01 -5.891496e-01 -5.782056e-01 -5.470855e-01 -4.925944e-01 -4.299011e-01 -3.552031e-01 -2.711283e-01 -1.801990e-01 -8.483915e-02 1.259355e-02 1.097590e-01 2.042786e-01 2.936787e-01 3.753457e-01 4.465026e-01 5.042249e-01 5.455143e-01 5.674474e-01 5.674158e-01 5.434536e-01 4.946296e-01 4.214419e-01 3.261276e-01 2.127822e-01 8.720535e-02 -4.355654e-02 -1.719240e-01 -2.906208e-01 -3.934528e-01 -4.758563e-01 -5.351177e-01 -5.702709e-01 -5.817823e-01 -5.711589e-01 -5.405798e-01 -4.813208e-01 -4.202438e-01 -3.473365e-01 -2.651736e-01 -1.762387e-01 -8.292767e-02 1.242235e-02 1.074889e-01 1.999121e-01 2.872435e-01 3.669057e-01 4.361735e-01 4.921943e-01 5.320622e-01 5.529666e-01 5.524234e-01 5.285897e-01 4.806347e-01 4.091097e-01 3.162330e-01 2.059945e-01 8.400039e-02 -4.296513e-02 -1.676163e-01 -2.829560e-01 -3.830115e-01 -4.633548e-01 -5.213161e-01 -5.558968e-01 -5.674808e-01 -5.574697e-01 -5.279336e-01 -4.651789e-01 -4.064086e-01 -3.360637e-01 -2.566416e-01 -1.705687e-01 -8.019915e-02 1.216136e-02 1.042174e-01 1.936382e-01 2.780132e-01 3.548183e-01 4.214042e-01 4.750209e-01 5.128947e-01 5.323730e-01 5.311456e-01 5.075388e-01 4.608581e-01 3.917234e-01 3.023222e-01 1.964923e-01 7.956812e-02 -4.203229e-02 -1.614323e-01 -2.720238e-01 -3.681436e-01 -4.455549e-01 -5.016525e-01 -5.353969e-01 -5.470615e-01 -5.379034e-01 -5.098404e-01 -4.450118e-01 -3.891113e-01 -3.219650e-01 -2.459725e-01 -1.634859e-01 -7.680435e-02 1.180881e-02 1.000952e-01 1.857637e-01 2.664543e-01 3.397123e-01 4.029849e-01 4.536510e-01 4.891002e-01 5.068729e-01 5.048678e-01 4.816125e-01 4.365703e-01 3.704360e-01 2.853512e-01 1.849641e-01 7.427679e-02 -4.073470e-02 -1.536864e-01 -2.584387e-01 -3.497028e-01 -4.234768e-01 -4.772408e-01 -5.099138e-01 -5.216423e-01 -5.135122e-01 -4.872579e-01 -4.218276e-01 -3.692095e-01 -3.057369e-01 -2.336941e-01 -1.553449e-01 -7.292116e-02 1.136685e-02 9.530789e-02 1.766609e-01 2.531280e-01 3.223386e-01 3.818529e-01 4.291986e-01 4.619501e-01 4.778632e-01 4.750664e-01 4.523038e-01 4.092046e-01 3.465352e-01 2.663759e-01 1.721567e-01 6.850892e-02 -3.907983e-02 -1.447670e-01 -2.429283e-01 -3.286894e-01 -3.983141e-01 -4.493865e-01 -4.807915e-01 -4.925440e-01 -4.855454e-01 -4.613276e-01 -3.967241e-01 -3.476393e-01 -2.881398e-01 -2.203824e-01 -1.465309e-01 -6.873983e-02 1.084352e-02 9.006447e-02 1.667417e-01 2.386501e-01 3.035138e-01 3.590187e-01 4.028534e-01 4.327892e-01 4.468070e-01 4.432711e-01 4.211433e-01 3.802140e-01 3.213111e-01 2.464387e-01 1.587917e-01 6.261261e-02 -3.711620e-02 -1.351098e-01 -2.262746e-01 -3.061677e-01 -3.713349e-01 -4.194810e-01 -4.494686e-01 -4.611874e-01 -4.553528e-01 -4.332879e-01 -3.708145e-01 -3.253529e-01 -2.699484e-01 -2.066233e-01 -1.374340e-01 -6.444939e-02 1.025390e-02 8.458579e-02 1.564328e-01 2.236504e-01 2.840657e-01 3.354964e-01 3.757972e-01 4.029386e-01 4.151247e-01 4.109494e-01 3.895813e-01 3.509577e-01 2.959537e-01 2.264853e-01 1.455065e-01 5.687262e-02 -3.493086e-02 -1.251645e-01 -2.092549e-01 -2.831852e-01 -3.437879e-01 -3.888995e-01 -4.173751e-01 -4.289927e-01 -4.242916e-01 -4.043903e-01 -3.451644e-01 -3.032646e-01 -2.519077e-01 -1.929799e-01 -1.284266e-01 -6.022656e-02 9.619872e-03 7.909292e-02 1.461524e-01 2.087396e-01 2.647873e-01 3.122469e-01 3.491371e-01 3.736208e-01 3.841140e-01 3.794239e-01 3.589065e-01 3.226264e-01 2.714895e-01 2.073166e-01 1.328252e-01 5.150165e-02 -3.263691e-02 -1.153623e-01 -1.925898e-01 -2.607071e-01 -3.168248e-01 -3.589167e-01 -3.858453e-01 -3.972950e-01 -3.936462e-01 -3.758264e-01 -3.207420e-01 -2.822090e-01 -2.346994e-01 -1.799670e-01 -1.198474e-01 -5.622814e-02 8.968934e-03 7.379702e-02 1.362917e-01 1.944809e-01 2.464027e-01 2.901376e-01 3.238596e-01 3.459106e-01 3.548998e-01 3.498245e-01 3.302035e-01 2.962062e-01 2.487547e-01 1.895720e-01 1.211532e-01 4.664605e-02 -3.035670e-02 -1.060886e-01 -1.769070e-01 -2.395691e-01 -2.914460e-01 -3.306474e-01 -3.560558e-01 -3.672816e-01 -3.645682e-01 -3.486722e-01 -2.983867e-01 -2.629135e-01 -2.189191e-01 -1.680345e-01 -1.119906e-01 -5.258678e-02 8.332017e-03 6.889119e-02 1.272008e-01 1.813727e-01 2.295447e-01 2.699171e-01 3.008053e-01 3.207111e-01 3.284129e-01 3.230714e-01 3.043411e-01 2.724740e-01 2.283961e-01 1.737359e-01 1.107875e-01 4.239935e-02 -2.820640e-02 -9.766530e-02 -1.627205e-01 -2.204549e-01 -2.684736e-01 -3.050155e-01 -3.289910e-01 -3.399561e-01 -3.380407e-01 -3.238545e-01 -2.787946e-01 -2.459847e-01 -2.050659e-01 -1.575591e-01 -1.051010e-01 -4.940987e-02 7.741047e-03 6.454469e-02 1.191806e-01 1.698376e-01 2.147436e-01 2.522052e-01 2.806611e-01 2.987496e-01 3.053916e-01 2.998824e-01 2.819853e-01 2.520146e-01 2.108918e-01 1.601587e-01 1.019356e-01 3.881740e-02 -2.628534e-02 -9.034481e-02 -1.504280e-01 -2.038938e-01 -2.485489e-01 -2.827485e-01 -3.054355e-01 -3.161274e-01 -3.148646e-01 -3.021353e-01 -2.625178e-01 -2.319071e-01 -1.935393e-01 -1.488428e-01 -9.937391e-02 -4.678057e-02 7.226453e-03 6.089938e-02 1.124783e-01 1.602190e-01 2.024257e-01 2.374944e-01 2.639651e-01 2.805877e-01 2.863968e-01 2.807935e-01 2.636244e-01 2.352488e-01 1.965788e-01 1.490822e-01 9.473637e-02 3.593155e-02 -2.467116e-02 -8.431291e-02 -1.403201e-01 -1.902739e-01 -2.321466e-01 -2.643919e-01 -2.859847e-01 -2.964176e-01 -2.956629e-01 -2.841140e-01 -2.499729e-01 -2.210486e-01 -1.846442e-01 -1.421163e-01 -9.495751e-02 -4.476023e-02 6.815036e-03 5.806815e-02 1.072879e-01 1.527828e-01 1.929178e-01 2.261575e-01 2.511201e-01 2.666395e-01 2.718355e-01 2.661870e-01 2.496006e-01 2.224658e-01 1.856845e-01 1.406658e-01 8.927843e-02 3.375845e-02 -2.341965e-02 -7.969788e-02 -1.325966e-01 -1.798645e-01 -2.196000e-01 -2.503336e-01 -2.710683e-01 -2.812815e-01 -2.808972e-01 -2.702390e-01 -2.414547e-01 -2.136712e-01 -1.785986e-01 -1.375444e-01 -9.195745e-02 -4.339140e-02 6.528252e-03 5.613477e-02 1.037509e-01 1.477219e-01 1.864542e-01 2.184596e-01 2.424089e-01 2.571923e-01 2.619862e-01 2.563204e-01 2.401400e-01 2.138530e-01 1.783531e-01 1.350088e-01 8.561549e-02 3.230653e-02 -2.256761e-02 -7.658215e-02 -1.273864e-01 -1.728407e-01 -2.111283e-01 -2.408328e-01 -2.609774e-01 -2.710314e-01 -2.708880e-01 -2.608250e-01 -2.371504e-01 -2.099419e-01 -1.755419e-01 -1.352327e-01 -9.044106e-02 -4.270065e-02 6.381042e-03 5.515441e-02 1.019596e-01 1.451609e-01 1.831856e-01 2.145696e-01 2.380102e-01 2.524258e-01 2.570208e-01 2.513502e-01 2.353781e-01 2.095212e-01 1.746683e-01 1.321676e-01 8.377743e-02 3.157978e-02 -2.213666e-02 -7.501349e-02 -1.247642e-01 -1.693052e-01 -2.068623e-01 -2.360459e-01 -2.558901e-01 -2.658604e-01 -2.658354e-01 -2.560702e-01 -2.414547e-01 -2.136712e-01 -1.785986e-01 -1.375444e-01 -9.195745e-02 -4.339141e-02 6.528255e-03 5.613477e-02 1.037509e-01 1.477219e-01 1.864542e-01 2.184596e-01 2.424089e-01 2.571923e-01 2.619862e-01 2.563204e-01 2.401400e-01 2.138530e-01 1.783531e-01 1.350088e-01 8.561549e-02 3.230652e-02 -2.256761e-02 -7.658215e-02 -1.273864e-01 -1.728407e-01 -2.111283e-01 -2.408328e-01 -2.609774e-01 -2.710314e-01 -2.708880e-01 -2.608250e-01 -2.459853e-01 -2.175892e-01 -1.818048e-01 -1.399660e-01 -9.354471e-02 -4.411463e-02 6.680718e-03 5.715759e-02 1.056214e-01 1.503987e-01 1.898742e-01 2.225353e-01 2.470249e-01 2.622031e-01 2.672157e-01 2.615646e-01 2.451735e-01 2.184394e-01 1.822593e-01 1.380229e-01 8.756410e-02 3.307154e-02 -2.303732e-02 -7.826540e-02 -1.301918e-01 -1.766162e-01 -2.156757e-01 -2.459256e-01 -2.663786e-01 -2.765093e-01 -2.762287e-01 -2.658400e-01 -2.549587e-01 -2.253456e-01 -1.881504e-01 -1.447584e-01 -9.668685e-02 -4.554870e-02 6.977626e-03 5.917541e-02 1.093165e-01 1.556908e-01 1.966410e-01 2.306056e-01 2.561725e-01 2.721415e-01 2.775972e-01 2.719848e-01 2.551839e-01 2.275684e-01 1.900410e-01 1.440320e-01 9.145262e-02 3.460197e-02 -2.396784e-02 -8.161417e-02 -1.357751e-01 -1.841282e-01 -2.247190e-01 -2.560469e-01 -2.771051e-01 -2.873803e-01 -2.868196e-01 -2.757784e-01 -2.681915e-01 -2.367757e-01 -1.974969e-01 -1.518164e-01 -1.013168e-01 -4.766750e-02 7.403281e-03 6.213201e-02 1.147427e-01 1.634725e-01 2.066032e-01 2.425021e-01 2.696752e-01 2.868324e-01 2.929657e-01 2.874339e-01 2.700477e-01 2.411428e-01 2.016278e-01 1.529915e-01 9.725991e-02 3.689790e-02 -2.533894e-02 -8.658760e-02 -1.440728e-01 -1.952887e-01 -2.381439e-01 -2.710564e-01 -2.929933e-01 -3.034628e-01 -3.024693e-01 -2.904482e-01 -2.853923e-01 -2.516185e-01 -2.096263e-01 -1.609744e-01 -1.073286e-01 -5.042878e-02 7.935123e-03 6.594171e-02 1.217558e-01 1.735485e-01 2.195242e-01 2.579586e-01 2.872510e-01 3.059924e-01 3.130505e-01 3.076659e-01 2.895532e-01 2.589923e-01 2.168933e-01 1.648187e-01 1.049447e-01 3.995738e-02 -2.711459e-02 -9.311133e-02 -1.549706e-01 -2.099411e-01 -2.557511e-01 -2.907144e-01 -3.137692e-01 -3.244582e-01 -3.228671e-01 -3.095407e-01 -3.061432e-01 -2.695032e-01 -2.242304e-01 -1.719991e-01 -1.145723e-01 -5.377084e-02 8.544960e-03 7.048854e-02 1.301575e-01 1.856472e-01 2.350717e-01 2.765975e-01 3.084946e-01 3.292076e-01 3.374484e-01 3.323071e-01 3.133720e-01 2.808448e-01 2.356294e-01 1.793725e-01 1.144333e-01 4.377264e-02 -2.923773e-02 -1.010636e-01 -1.682815e-01 -2.278334e-01 -2.772259e-01 -3.146501e-01 -3.390169e-01 -3.499212e-01 -3.475569e-01 -3.326093e-01 -3.298830e-01 -2.899362e-01 -2.409009e-01 -1.845816e-01 -1.228480e-01 -5.760900e-02 9.200807e-03 7.562603e-02 1.396931e-01 1.994158e-01 2.528085e-01 2.979151e-01 3.328573e-01 3.559084e-01 3.655947e-01 3.608226e-01 3.410221e-01 3.062911e-01 2.575142e-01 1.964277e-01 1.256022e-01 4.832332e-02 -3.162570e-02 -1.102600e-01 -1.837216e-01 -2.485866e-01 -3.021029e-01 -3.423251e-01 -3.681443e-01 -3.792290e-01 -3.759109e-01 -3.590469e-01 -3.558934e-01 -3.122906e-01 -2.591222e-01 -1.983323e-01 -1.319029e-01 -6.183255e-02 9.869158e-03 8.117854e-02 1.500509e-01 2.144164e-01 2.721857e-01 3.212707e-01 3.596306e-01 3.853467e-01 3.967330e-01 3.924809e-01 3.718297e-01 3.347449e-01 2.820742e-01 2.156433e-01 1.382551e-01 5.356533e-02 -3.416903e-02 -1.204402e-01 -2.008864e-01 -2.716644e-01 -3.297315e-01 -3.729988e-01 -4.003498e-01 -4.115521e-01 -4.071055e-01 -3.880683e-01 -3.832956e-01 -3.358054e-01 -2.782716e-01 -2.127815e-01 -1.414298e-01 -6.630312e-02 1.051770e-02 8.694461e-02 1.608654e-01 2.301295e-01 2.925431e-01 3.458832e-01 3.879376e-01 4.165809e-01 4.298938e-01 4.263256e-01 4.048947e-01 3.654055e-01 3.086472e-01 2.365283e-01 1.520975e-01 5.941469e-02 -3.673578e-02 -1.312608e-01 -2.192352e-01 -2.963507e-01 -3.592511e-01 -4.057038e-01 -4.346019e-01 -4.458387e-01 -4.401105e-01 -4.187029e-01 -4.110618e-01 -3.595971e-01 -2.976289e-01 -2.273862e-01 -1.510721e-01 -7.085547e-02 1.111798e-02 9.270285e-02 1.717263e-01 2.459628e-01 3.131192e-01 3.708392e-01 4.167375e-01 4.484757e-01 4.638876e-01 4.611614e-01 4.390701e-01 3.972308e-01 3.363520e-01 2.584123e-01 1.667091e-01 6.572771e-02 -3.918348e-02 -1.422998e-01 -2.380883e-01 -3.217440e-01 -3.895851e-01 -4.392423e-01 -4.696389e-01 -4.808185e-01 -4.736970e-01 -4.498051e-01 -4.380467e-01 -3.826868e-01 -3.163991e-01 -2.415470e-01 -1.604337e-01 -7.530165e-02 1.164769e-02 9.822037e-02 1.821918e-01 2.612707e-01 3.330731e-01 3.951172e-01 4.448508e-01 4.797245e-01 4.973234e-01 4.955661e-01 4.729661e-01 4.289341e-01 3.640778e-01 2.804292e-01 1.815259e-01 7.228128e-02 -4.137792e-02 -1.530739e-01 -2.566449e-01 -3.467769e-01 -4.194638e-01 -4.722135e-01 -5.040001e-01 -5.150365e-01 -5.064718e-01 -4.800887e-01 -4.630401e-01 -4.040446e-01 -3.337482e-01 -2.546353e-01 -1.690973e-01 -7.943908e-02 1.209205e-02 1.032635e-01 1.918091e-01 2.753826e-01 3.515213e-01 4.176311e-01 4.710064e-01 5.088998e-01 5.286585e-01 5.279376e-01 5.049910e-01 4.590163e-01 3.905063e-01 3.015278e-01 1.958384e-01 7.876081e-02 -4.321503e-02 -1.630698e-01 -2.740234e-01 -3.702652e-01 -4.474816e-01 -5.030771e-01 -5.360928e-01 -5.469204e-01 -5.369418e-01 -5.081854e-01 -4.848372e-01 -4.226496e-01 -3.488509e-01 -2.660288e-01 -1.766476e-01 -8.306251e-02 1.244390e-02 1.076101e-01 2.001386e-01 2.876399e-01 3.675870e-01 4.372911e-01 4.939141e-01 5.345345e-01 5.562859e-01 5.565833e-01 5.334386e-01 4.858452e-01 4.141775e-01 3.205203e-01 2.088197e-01 8.476563e-02 -4.463853e-02 -1.717838e-01 -2.893208e-01 -3.909845e-01 -4.721868e-01 -5.302503e-01 -5.642921e-01 -5.748771e-01 -5.636045e-01 -5.327264e-01 -5.023220e-01 -4.375591e-01 -3.609470e-01 -2.751539e-01 -1.827004e-01 -8.597901e-02 1.270244e-02 1.110625e-01 2.067817e-01 2.974392e-01 3.804592e-01 4.530795e-01 5.123569e-01 5.552291e-01 5.786551e-01 5.798499e-01 5.566208e-01 5.077841e-01 4.336065e-01 3.361773e-01 2.195917e-01 8.984043e-02 -4.564510e-02 -1.787621e-01 -3.016836e-01 -4.077652e-01 -4.921926e-01 -5.522280e-01 -5.870610e-01 -5.974085e-01 -5.850549e-01 -5.524384e-01 -5.145544e-01 -4.479816e-01 -3.693989e-01 -2.815297e-01 -1.869326e-01 -8.802439e-02 1.287091e-02 1.134596e-01 2.114086e-01 3.042769e-01 3.894562e-01 4.641342e-01 5.252948e-01 5.697772e-01 5.944161e-01 5.962831e-01 5.730365e-01 5.233614e-01 4.474418e-01 3.473646e-01 2.273272e-01 9.353508e-02 -4.627186e-02 -1.836344e-01 -3.103812e-01 -4.195938e-01 -5.062957e-01 -5.677079e-01 -6.030765e-01 -6.132328e-01 -6.000975e-01 -5.662437e-01 -5.208510e-01 -4.533437e-01 -3.737458e-01 -2.848089e-01 -1.891101e-01 -8.907875e-02 1.295367e-02 1.146876e-01 2.137836e-01 3.077906e-01 3.940844e-01 4.698271e-01 5.319656e-01 5.772882e-01 6.025650e-01 6.047926e-01 5.815508e-01 5.314550e-01 4.546438e-01 3.532007e-01 2.313754e-01 9.548499e-02 -4.656849e-02 -1.861390e-01 -3.148746e-01 -4.257134e-01 -5.135932e-01 -5.757139e-01 -6.113520e-01 -6.214005e-01 -6.078535e-01 -5.733552e-01 -5.208510e-01 -4.533437e-01 -3.737458e-01 -2.848089e-01 -1.891101e-01 -8.907875e-02 1.295367e-02 1.146876e-01 2.137836e-01 3.077906e-01 3.940844e-01 4.698271e-01 5.319656e-01 5.772882e-01 6.025650e-01 6.047926e-01 5.815508e-01 5.314550e-01 4.546439e-01 3.532007e-01 2.313754e-01 9.548499e-02 -4.656849e-02 -1.861390e-01 -3.148746e-01 -4.257134e-01 -5.135932e-01 -5.757139e-01 -6.113520e-01 -6.214005e-01 -6.078535e-01 -5.733552e-01 -5.145544e-01 -4.479816e-01 -3.693989e-01 -2.815297e-01 -1.869326e-01 -8.802439e-02 1.287091e-02 1.134596e-01 2.114086e-01 3.042769e-01 3.894562e-01 4.641342e-01 5.252948e-01 5.697772e-01 5.944161e-01 5.962831e-01 5.730365e-01 5.233614e-01 4.474418e-01 3.473646e-01 2.273272e-01 9.353508e-02 -4.627186e-02 -1.836344e-01 -3.103812e-01 -4.195938e-01 -5.062957e-01 -5.677079e-01 -6.030765e-01 -6.132328e-01 -6.000975e-01 -5.662437e-01 -5.023220e-01 -4.375591e-01 -3.609470e-01 -2.751539e-01 -1.827004e-01 -8.597901e-02 1.270245e-02 1.110625e-01 2.067817e-01 2.974392e-01 3.804592e-01 4.530795e-01 5.123569e-01 5.552291e-01 5.786551e-01 5.798499e-01 5.566208e-01 5.077841e-01 4.336065e-01 3.361773e-01 2.195917e-01 8.984042e-02 -4.564510e-02 -1.787621e-01 -3.016836e-01 -4.077652e-01 -4.921926e-01 -5.522280e-01 -5.870610e-01 -5.974085e-01 -5.850549e-01 -5.524384e-01 -4.848372e-01 -4.226496e-01 -3.488509e-01 -2.660288e-01 -1.766476e-01 -8.306251e-02 1.244390e-02 1.076101e-01 2.001386e-01 2.876399e-01 3.675870e-01 4.372911e-01 4.939141e-01 5.345345e-01 5.562858e-01 5.565833e-01 5.334386e-01 4.858452e-01 4.141775e-01 3.205203e-01 2.088197e-01 8.476563e-02 -4.463853e-02 -1.717838e-01 -2.893208e-01 -3.909845e-01 -4.721868e-01 -5.302503e-01 -5.642921e-01 -5.748771e-01 -5.636045e-01 -5.327264e-01 -4.630401e-01 -4.040446e-01 -3.337482e-01 -2.546353e-01 -1.690973e-01 -7.943908e-02 1.209205e-02 1.032635e-01 1.918091e-01 2.753826e-01 3.515213e-01 4.176311e-01 4.710064e-01 5.088998e-01 5.286585e-01 5.279376e-01 5.049910e-01 4.590163e-01 3.905063e-01 3.015278e-01 1.958384e-01 7.876081e-02 -4.321503e-02 -1.630698e-01 -2.740234e-01 -3.702652e-01 -4.474816e-01 -5.030771e-01 -5.360928e-01 -5.469204e-01 -5.369418e-01 -5.081854e-01 -4.380467e-01 -3.826868e-01 -3.163991e-01 -2.415470e-01 -1.604337e-01 -7.530165e-02 1.164769e-02 9.822037e-02 1.821918e-01 2.612707e-01 3.330731e-01 3.951172e-01 4.448508e-01 4.797245e-01 4.973234e-01 4.955661e-01 4.729661e-01 4.289341e-01 3.640778e-01 2.804293e-01 1.815259e-01 7.228128e-02 -4.137792e-02 -1.530739e-01 -2.566449e-01 -3.467769e-01 -4.194638e-01 -4.722135e-01 -5.040001e-01 -5.150365e-01 -5.064718e-01 -4.800887e-01 -4.110618e-01 -3.595972e-01 -2.976289e-01 -2.273862e-01 -1.510721e-01 -7.085548e-02 1.111798e-02 9.270285e-02 1.717263e-01 2.459628e-01 3.131192e-01 3.708392e-01 4.167375e-01 4.484757e-01 4.638876e-01 4.611614e-01 4.390701e-01 3.972308e-01 3.363520e-01 2.584123e-01 1.667091e-01 6.572771e-02 -3.918348e-02 -1.422998e-01 -2.380883e-01 -3.217440e-01 -3.895851e-01 -4.392423e-01 -4.696389e-01 -4.808185e-01 -4.736970e-01 -4.498051e-01 -3.832956e-01 -3.358054e-01 -2.782716e-01 -2.127815e-01 -1.414298e-01 -6.630312e-02 1.051770e-02 8.694461e-02 1.608654e-01 2.301295e-01 2.925431e-01 3.458833e-01 3.879376e-01 4.165809e-01 4.298938e-01 4.263256e-01 4.048947e-01 3.654055e-01 3.086472e-01 2.365283e-01 1.520975e-01 5.941469e-02 -3.673578e-02 -1.312608e-01 -2.192352e-01 -2.963507e-01 -3.592511e-01 -4.057038e-01 -4.346019e-01 -4.458387e-01 -4.401105e-01 -4.187029e-01 -3.558934e-01 -3.122906e-01 -2.591222e-01 -1.983323e-01 -1.319029e-01 -6.183255e-02 9.869160e-03 8.117853e-02 1.500509e-01 2.144164e-01 2.721857e-01 3.212707e-01 3.596306e-01 3.853467e-01 3.967330e-01 3.924809e-01 3.718297e-01 3.347449e-01 2.820742e-01 2.156433e-01 1.382552e-01 5.356533e-02 -3.416903e-02 -1.204402e-01 -2.008864e-01 -2.716644e-01 -3.297315e-01 -3.729988e-01 -4.003498e-01 -4.115521e-01 -4.071055e-01 -3.880683e-01 -3.298830e-01 -2.899362e-01 -2.409009e-01 -1.845816e-01 -1.228480e-01 -5.760900e-02 9.200804e-03 7.562603e-02 1.396931e-01 1.994158e-01 2.528085e-01 2.979151e-01 3.328573e-01 3.559084e-01 3.655947e-01 3.608226e-01 3.410221e-01 3.062911e-01 2.575142e-01 1.964277e-01 1.256022e-01 4.832333e-02 -3.162571e-02 -1.102600e-01 -1.837216e-01 -2.485866e-01 -3.021029e-01 -3.423251e-01 -3.681443e-01 -3.792290e-01 -3.759109e-01 -3.590469e-01 -3.061432e-01 -2.695032e-01 -2.242304e-01 -1.719991e-01 -1.145723e-01 -5.377084e-02 8.544962e-03 7.048854e-02 1.301575e-01 1.856472e-01 2.350717e-01 2.765975e-01 3.084946e-01 3.292076e-01 3.374484e-01 3.323071e-01 3.133720e-01 2.808448e-01 2.356294e-01 1.793725e-01 1.144333e-01 4.377264e-02 -2.923773e-02 -1.010636e-01 -1.682815e-01 -2.278334e-01 -2.772259e-01 -3.146501e-01 -3.390169e-01 -3.499212e-01 -3.475569e-01 -3.326093e-01 -2.853923e-01 -2.516185e-01 -2.096263e-01 -1.609744e-01 -1.073286e-01 -5.042878e-02 7.935121e-03 6.594172e-02 1.217558e-01 1.735485e-01 2.195242e-01 2.579587e-01 2.872510e-01 3.059924e-01 3.130505e-01 3.076659e-01 2.895532e-01 2.589923e-01 2.168933e-01 1.648187e-01 1.049447e-01 3.995738e-02 -2.711459e-02 -9.311133e-02 -1.549706e-01 -2.099411e-01 -2.557511e-01 -2.907144e-01 -3.137692e-01 -3.244582e-01 -3.228671e-01 -3.095407e-01 -2.681915e-01 -2.367757e-01 -1.974969e-01 -1.518164e-01 -1.013168e-01 -4.766750e-02 7.403283e-03 6.213201e-02 1.147427e-01 1.634725e-01 2.066032e-01 2.425021e-01 2.696752e-01 2.868324e-01 2.929657e-01 2.874339e-01 2.700477e-01 2.411428e-01 2.016278e-01 1.529915e-01 9.725991e-02 3.689790e-02 -2.533894e-02 -8.658760e-02 -1.440728e-01 -1.952887e-01 -2.381439e-01 -2.710564e-01 -2.929933e-01 -3.034628e-01 -3.024693e-01 -2.904482e-01 -2.549587e-01 -2.253456e-01 -1.881504e-01 -1.447584e-01 -9.668685e-02 -4.554869e-02 6.977623e-03 5.917541e-02 1.093165e-01 1.556908e-01 1.966410e-01 2.306056e-01 2.561725e-01 2.721415e-01 2.775971e-01 2.719848e-01 2.551839e-01 2.275684e-01 1.900410e-01 1.440320e-01 9.145261e-02 3.460197e-02 -2.396785e-02 -8.161417e-02 -1.357751e-01 -1.841282e-01 -2.247190e-01 -2.560469e-01 -2.771051e-01 -2.873803e-01 -2.868196e-01 -2.757784e-01 -2.459853e-01 -2.175892e-01 -1.818048e-01 -1.399660e-01 -9.354471e-02 -4.411463e-02 6.680721e-03 5.715759e-02 1.056214e-01 1.503987e-01 1.898742e-01 2.225353e-01 2.470249e-01 2.622031e-01 2.672157e-01 2.615646e-01 2.451735e-01 2.184394e-01 1.822593e-01 1.380229e-01 8.756410e-02 3.307154e-02 -2.303732e-02 -7.826540e-02 -1.301918e-01 -1.766162e-01 -2.156757e-01 -2.459256e-01 -2.663786e-01 -2.765094e-01 -2.762287e-01 -2.658400e-01 -2.414547e-01 -2.136712e-01 -1.785986e-01 -1.375444e-01 -9.195745e-02 -4.339140e-02 6.528252e-03 5.613477e-02 1.037509e-01 1.477219e-01 1.864542e-01 2.184596e-01 2.424089e-01 2.571923e-01 2.619862e-01 2.563204e-01 2.401400e-01 2.138530e-01 1.783531e-01 1.350088e-01 8.561549e-02 3.230653e-02 -2.256761e-02 -7.658215e-02 -1.273864e-01 -1.728407e-01 -2.111283e-01 -2.408328e-01 -2.609774e-01 -2.710314e-01 -2.708880e-01 -2.608250e-01 -2.499729e-01 -2.210486e-01 -1.846442e-01 -1.421163e-01 -9.495751e-02 -4.476023e-02 6.815034e-03 5.806816e-02 1.072879e-01 1.527828e-01 1.929178e-01 2.261575e-01 2.511201e-01 2.666395e-01 2.718355e-01 2.661870e-01 2.496006e-01 2.224658e-01 1.856845e-01 1.406658e-01 8.927842e-02 3.375845e-02 -2.341965e-02 -7.969787e-02 -1.325966e-01 -1.798645e-01 -2.196000e-01 -2.503336e-01 -2.710683e-01 -2.812815e-01 -2.808972e-01 -2.702390e-01 -2.549587e-01 -2.253456e-01 -1.881504e-01 -1.447584e-01 -9.668685e-02 -4.554870e-02 6.977626e-03 5.917541e-02 1.093165e-01 1.556908e-01 1.966410e-01 2.306056e-01 2.561725e-01 2.721415e-01 2.775972e-01 2.719848e-01 2.551839e-01 2.275684e-01 1.900410e-01 1.440320e-01 9.145262e-02 3.460197e-02 -2.396784e-02 -8.161417e-02 -1.357751e-01 -1.841282e-01 -2.247190e-01 -2.560469e-01 -2.771051e-01 -2.873803e-01 -2.868196e-01 -2.757784e-01 -2.648482e-01 -2.338640e-01 -1.950981e-01 -1.499930e-01 -1.001140e-01 -4.711397e-02 7.293957e-03 6.136121e-02 1.133271e-01 1.614449e-01 2.040144e-01 2.394226e-01 2.661966e-01 2.830688e-01 2.890523e-01 2.835244e-01 2.663088e-01 2.377463e-01 1.987394e-01 1.507593e-01 9.580247e-02 3.629396e-02 -2.505737e-02 -8.543768e-02 -1.421187e-01 -1.926348e-01 -2.349258e-01 -2.674293e-01 -2.891211e-01 -2.995081e-01 -2.985857e-01 -2.867744e-01 -2.794681e-01 -2.464443e-01 -2.053518e-01 -1.577164e-01 -1.051727e-01 -4.943111e-02 7.746718e-03 6.456720e-02 1.192237e-01 1.699176e-01 2.148864e-01 2.524420e-01 2.810219e-01 2.992570e-01 3.060524e-01 3.006809e-01 2.828788e-01 2.529325e-01 2.117402e-01 1.608308e-01 1.023270e-01 3.884408e-02 -2.667092e-02 -9.114303e-02 -1.515903e-01 -2.053300e-01 -2.501429e-01 -2.843768e-01 -3.069854e-01 -3.175109e-01 -3.160253e-01 -3.030498e-01 -2.985353e-01 -2.628296e-01 -2.186945e-01 -1.677630e-01 -1.117572e-01 -5.245876e-02 8.310970e-03 6.870392e-02 1.268574e-01 1.809086e-01 2.290167e-01 2.693970e-01 3.003704e-01 3.204331e-01 3.283449e-01 3.232352e-01 3.047172e-01 2.729971e-01 2.289587e-01 1.742018e-01 1.110142e-01 4.226568e-02 -2.877399e-02 -9.867448e-02 -1.641086e-01 -2.221001e-01 -2.702181e-01 -3.066955e-01 -3.304643e-01 -3.411223e-01 -3.388510e-01 