<VTKFile type="RectilinearGrid">
<RectilinearGrid WholeExtent="0 32 0 32 0 32" GhostLevel="0">
<Piece Extent="0 32 0 32 0 32">
<CellData Scalars="p phase" Vectors="vel">
<DataArray type="Float32" Name="p">
-2.431315e-01 -2.312796e-01 -2.109746e-01 -1.831166e-01 -1.488297e-01 -1.094134e-01 -6.629608e-02 -2.099403e-02 2.492699e-02 6.988711e-02 1.123272e-01 1.507450e-01 1.837337e-01 2.100255e-01 2.285379e-01 2.384246e-01 2.391258e-01 2.304159e-01 2.124425e-01 1.857505e-01 1.512859e-01 1.103741e-01 6.467077e-02 1.608602e-02 -3.331388e-02 -8.141850e-02 -1.261895e-01 -1.657697e-01 -1.985764e-01 -2.233702e-01 -2.392974e-01 -2.459049e-01 -2.476761e-01 -2.355109e-01 -2.147550e-01 -1.863338e-01 -1.513963e-01 -1.112649e-01 -6.738891e-02 -2.130367e-02 2.540728e-02 7.114664e-02 1.143373e-01 1.534575e-01 1.870793e-01 2.139112e-01 2.328460e-01 2.430119e-01 2.438256e-01 2.350420e-01 2.167968e-01 1.896327e-01 1.545066e-01 1.127681e-01 6.611074e-02 1.649335e-02 -3.396179e-02 -8.308616e-02 -1.287866e-01 -1.691594e-01 -2.025870e-01 -2.278086e-01 -2.439629e-01 -2.506011e-01 -2.566842e-01 -2.438930e-01 -2.222398e-01 -1.927008e-01 -1.564738e-01 -1.149266e-01 -6.954985e-02 -2.191597e-02 2.635673e-02 7.363701e-02 1.183126e-01 1.588239e-01 1.937008e-01 2.216056e-01 2.413813e-01 2.521058e-01 2.531482e-01 2.442243e-01 2.254446e-01 1.973473e-01 1.609095e-01 1.175292e-01 6.897506e-02 1.730346e-02 -3.525114e-02 -8.640382e-02 -1.339517e-01 -1.758980e-01 -2.105558e-01 -2.366224e-01 -2.532219e-01 -2.599154e-01 -2.699859e-01 -2.562585e-01 -2.332721e-01 -2.020782e-01 -1.639474e-01 -1.203139e-01 -7.272824e-02 -2.281670e-02 2.775252e-02 7.729943e-02 1.241613e-01 1.667233e-01 2.034543e-01 2.329485e-01 2.539754e-01 2.655373e-01 2.669316e-01 2.578141e-01 2.382559e-01 2.087861e-01 1.704107e-01 1.245984e-01 7.322937e-02 1.850642e-02 -3.716754e-02 -9.133250e-02 -1.416209e-01 -1.858966e-01 -2.223699e-01 -2.496770e-01 -2.669222e-01 -2.736832e-01 -2.873091e-01 -2.723412e-01 -2.476037e-01 -2.142475e-01 -1.736377e-01 -1.272947e-01 -7.684528e-02 -2.398365e-02 2.955930e-02 8.204255e-02 1.317398e-01 1.769668e-01 2.161139e-01 2.476871e-01 2.703600e-01 2.830348e-01 2.849127e-01 2.755674e-01 2.550147e-01 2.237682e-01 1.828681e-01 1.338743e-01 7.881442e-02 2.008511e-02 -3.968586e-02 -9.780477e-02 -1.516845e-01 -1.990046e-01 -2.378402e-01 -2.667496e-01 -2.848145e-01 -2.916382e-01 -3.082603e-01 -2.917604e-01 -2.648827e-01 -2.289006e-01 -1.852937e-01 -1.356851e-01 -8.179130e-02 -2.538590e-02 3.172807e-02 8.773939e-02 1.408484e-01 1.892896e-01 2.313607e-01 2.654622e-01 2.901506e-01 3.042051e-01 3.067061e-01 2.971226e-01 2.753970e-01 2.420175e-01 1.980621e-01 1.451996e-01 8.563738e-02 2.201288e-02 -4.276620e-02 -1.057145e-01 -1.639720e-01 -2.149898e-01 -2.566793e-01 -2.875061e-01 -3.065299e-01 -3.133913e-01 -3.323050e-01 -3.140042e-01 -2.846407e-01 -2.456307e-01 -1.985855e-01 -1.452442e-01 -8.742329e-02 -2.698306e-02 3.419521e-02 9.422456e-02 1.512257e-01 2.033438e-01 2.487731e-01 2.857944e-01 3.128293e-01 3.285125e-01 3.317805e-01 3.219742e-01 2.989431e-01 2.631382e-01 2.156743e-01 1.583429e-01 9.356125e-02 2.425050e-02 -4.634892e-02 -1.149047e-01 -1.782327e-01 -2.335159e-01 -2.784754e-01 -3.114747e-01 -3.315547e-01 -3.384073e-01 -3.587499e-01 -3.384158e-01 -3.062821e-01 -2.639249e-01 -2.131001e-01 -1.556721e-01 -9.356353e-02 -2.872488e-02 3.688207e-02 1.012928e-01 1.625460e-01 2.186934e-01 2.678189e-01 3.080736e-01 3.377301e-01 3.552603e-01 3.594361e-01 3.494480e-01 3.250325e-01 2.865886e-01 2.352638e-01 1.729817e-01 1.023938e-01 2.674317e-02 -5.034928e-02 -1.251540e-01 -1.941168e-01 -2.541176e-01 -3.026667e-01 -3.380195e-01 -3.592051e-01 -3.659834e-01 -3.867330e-01 -3.641876e-01 -3.290818e-01 -2.831635e-01 -2.283417e-01 -1.666105e-01 -1.000002e-01 -3.055141e-02 3.969537e-02 1.086999e-01 1.744202e-01 2.348145e-01 2.878543e-01 3.315553e-01 3.640320e-01 3.835804e-01 3.887904e-01 3.786832e-01 3.528624e-01 3.116599e-01 2.562479e-01 1.886862e-01 1.118776e-01 2.941782e-02 -5.465270e-02 -1.361651e-01 -2.111580e-01 -2.761809e-01 -3.285194e-01 -3.663201e-01 -3.886108e-01 -3.952356e-01 -4.152276e-01 -3.903675e-01 -3.521924e-01 -3.026283e-01 -2.437393e-01 -1.776485e-01 -1.064914e-01 -3.239401e-02 4.252904e-02 1.161671e-01 1.864024e-01 2.511036e-01 3.081321e-01 3.553681e-01 3.907649e-01 4.124357e-01 4.187775e-01 4.086275e-01 3.814407e-01 3.374667e-01 2.778921e-01 2.049104e-01 1.216845e-01 3.218163e-02 -5.911157e-02 -1.475580e-01 -2.287640e-01 -2.989323e-01 -3.551186e-01 -3.953653e-01 -4.187108e-01 -4.250992e-01 -4.430657e-01 -4.158830e-01 -3.746681e-01 -3.215234e-01 -2.586638e-01 -1.883356e-01 -1.127721e-01 -3.417750e-02 4.526760e-02 1.233899e-01 1.980035e-01 2.668951e-01 3.278228e-01 3.785371e-01 4.168336e-01 4.406436e-01 4.481686e-01 4.380550e-01 4.095991e-01 3.629561e-01 2.993152e-01 2.209954e-01 1.314169e-01 3.492256e-02 -6.354547e-02 -1.588708e-01 -2.462195e-01 -3.214451e-01 -3.813782e-01 -4.239669e-01 -4.482723e-01 -4.543503e-01 -4.689852e-01 -4.395853e-01 -3.955038e-01 -3.390090e-01 -2.724554e-01 -1.982012e-01 -1.185665e-01 -3.582341e-02 4.779122e-02 1.300513e-01 2.087127e-01 2.814905e-01 3.460505e-01 4.000250e-01 4.410628e-01 4.669232e-01 4.756194e-01 4.656109e-01 4.360338e-01 3.869423e-01 3.195174e-01 2.361891e-01 1.406195e-01 3.751273e-02 -6.774610e-02 -1.695734e-01 -2.627078e-01 -3.426689e-01 -4.060778e-01 -4.508022e-01 -4.759362e-01 -4.816530e-01 -4.917015e-01 -4.603149e-01 -4.136924e-01 -3.542488e-01 -2.844603e-01 -2.067806e-01 -1.236027e-01 -3.725439e-02 4.998242e-02 1.358394e-01 2.180256e-01 2.941971e-01 3.619419e-01 4.187904e-01 4.622635e-01 4.899678e-01 4.997467e-01 4.898883e-01 4.593786e-01 4.081726e-01 3.374345e-01 2.496863e-01 1.488032e-01 3.981517e-02 -7.148819e-02 -1.790951e-01 -2.773547e-01 -3.614869e-01 -4.279298e-01 -4.744879e-01 -5.002945e-01 -5.056360e-01 -5.100004e-01 -4.769837e-01 -4.282949e-01 -3.664676e-01 -2.940750e-01 -2.136464e-01 -1.276312e-01 -3.839931e-02 5.173365e-02 1.404682e-01 2.254783e-01 3.043752e-01 3.746861e-01 4.338611e-01 4.793183e-01 5.085400e-01 5.192299e-01 5.095331e-01 4.783080e-01 4.254220e-01 3.520188e-01 2.606898e-01 1.554820e-01 4.169388e-02 -7.454650e-02 -1.868681e-01 -2.892949e-01 -3.768004e-01 -4.456773e-01 -4.936847e-01 -5.199948e-01 -5.249930e-01 -5.228429e-01 -4.886661e-01 -4.385168e-01 -3.750121e-01 -3.007931e-01 -2.184409e-01 -1.304433e-01 -3.919869e-02 5.295534e-02 1.436988e-01 2.306826e-01 3.114876e-01 3.835998e-01 4.444135e-01 4.912750e-01 5.215788e-01 5.329293e-01 5.233684e-01 4.916613e-01 4.376099e-01 3.623396e-01 2.684872e-01 1.602192e-01 4.302651e-02 -7.671794e-02 -1.923822e-01 -2.977552e-01 -3.876348e-01 -4.582132e-01 -5.072216e-01 -5.338638e-01 -5.385984e-01 -5.294662e-01 -4.946860e-01 -4.437801e-01 -3.794089e-01 -3.042483e-01 -2.209058e-01 -1.318888e-01 -3.960962e-02 5.358304e-02 1.453592e-01 2.333582e-01 3.151458e-01 3.881871e-01 4.498479e-01 4.974374e-01 5.283050e-01 5.400031e-01 5.305197e-01 4.985708e-01 4.439233e-01 3.676914e-01 2.725343e-01 1.626796e-01 4.371875e-02 -7.784640e-02 -1.952463e-01 -3.021461e-01 -3.932521e-01 -4.647056e-01 -5.142245e-01 -5.410306e-01 -5.456218e-01 -5.294662e-01 -4.946860e-01 -4.437801e-01 -3.794089e-01 -3.042483e-01 -2.209058e-01 -1.318888e-01 -3.960962e-02 5.358304e-02 1.453592e-01 2.333582e-01 3.151458e-01 3.881871e-01 4.498479e-01 4.974374e-01 5.283050e-01 5.400031e-01 5.305197e-01 4.985708e-01 4.439233e-01 3.676914e-01 2.725343e-01 1.626796e-01 4.371875e-02 -7.784640e-02 -1.952463e-01 -3.021461e-01 -3.932521e-01 -4.647056e-01 -5.142245e-01 -5.410306e-01 -5.456218e-01 -5.228429e-01 -4.886661e-01 -4.385168e-01 -3.750121e-01 -3.007931e-01 -2.184409e-01 -1.304433e-01 -3.919869e-02 5.295534e-02 1.436988e-01 2.306826e-01 3.114876e-01 3.835998e-01 4.444135e-01 4.912750e-01 5.215788e-01 5.329293e-01 5.233684e-01 4.916613e-01 4.376099e-01 3.623396e-01 2.684872e-01 1.602192e-01 4.302651e-02 -7.671794e-02 -1.923822e-01 -2.977552e-01 -3.876348e-01 -4.582132e-01 -5.072216e-01 -5.338638e-01 -5.385984e-01 -5.100004e-01 -4.769837e-01 -4.282949e-01 -3.664676e-01 -2.940750e-01 -2.136464e-01 -1.276312e-01 -3.839931e-02 5.173365e-02 1.404682e-01 2.254783e-01 3.043752e-01 3.746861e-01 4.338611e-01 4.793183e-01 5.085400e-01 5.192299e-01 5.095331e-01 4.783080e-01 4.254220e-01 3.520188e-01 2.606898e-01 1.554820e-01 4.169388e-02 -7.454650e-02 -1.868681e-01 -2.892949e-01 -3.768004e-01 -4.456773e-01 -4.936847e-01 -5.199948e-01 -5.249930e-01 -4.917015e-01 -4.603149e-01 -4.136924e-01 -3.542488e-01 -2.844603e-01 -2.067806e-01 -1.236027e-01 -3.725439e-02 4.998242e-02 1.358394e-01 2.180256e-01 2.941971e-01 3.619419e-01 4.187904e-01 4.622635e-01 4.899678e-01 4.997467e-01 4.898883e-01 4.593786e-01 4.081726e-01 3.374345e-01 2.496863e-01 1.488032e-01 3.981517e-02 -7.148819e-02 -1.790951e-01 -2.773547e-01 -3.614869e-01 -4.279298e-01 -4.744879e-01 -5.002945e-01 -5.056360e-01 -4.689852e-01 -4.395853e-01 -3.955038e-01 -3.390090e-01 -2.724554e-01 -1.982012e-01 -1.185665e-01 -3.582341e-02 4.779122e-02 1.300513e-01 2.087127e-01 2.814905e-01 3.460505e-01 4.000250e-01 4.410628e-01 4.669232e-01 4.756194e-01 4.656109e-01 4.360338e-01 3.869423e-01 3.195174e-01 2.361891e-01 1.406195e-01 3.751273e-02 -6.774610e-02 -1.695734e-01 -2.627078e-01 -3.426689e-01 -4.060778e-01 -4.508022e-01 -4.759362e-01 -4.816530e-01 -4.430657e-01 -4.158830e-01 -3.746681e-01 -3.215234e-01 -2.586638e-01 -1.883356e-01 -1.127721e-01 -3.417750e-02 4.526760e-02 1.233899e-01 1.980035e-01 2.668951e-01 3.278228e-01 3.785371e-01 4.168336e-01 4.406436e-01 4.481686e-01 4.380550e-01 4.095991e-01 3.629561e-01 2.993152e-01 2.209954e-01 1.314169e-01 3.492256e-02 -6.354547e-02 -1.588708e-01 -2.462195e-01 -3.214451e-01 -3.813782e-01 -4.239669e-01 -4.482723e-01 -4.543503e-01 -4.152276e-01 -3.903675e-01 -3.521924e-01 -3.026283e-01 -2.437393e-01 -1.776485e-01 -1.064914e-01 -3.239401e-02 4.252904e-02 1.161671e-01 1.864024e-01 2.511036e-01 3.081321e-01 3.553681e-01 3.907649e-01 4.124357e-01 4.187775e-01 4.086275e-01 3.814407e-01 3.374667e-01 2.778921e-01 2.049104e-01 1.216845e-01 3.218163e-02 -5.911157e-02 -1.475580e-01 -2.287640e-01 -2.989323e-01 -3.551186e-01 -3.953653e-01 -4.187108e-01 -4.250992e-01 -3.867330e-01 -3.641876e-01 -3.290818e-01 -2.831635e-01 -2.283417e-01 -1.666105e-01 -1.000002e-01 -3.055141e-02 3.969537e-02 1.086999e-01 1.744202e-01 2.348145e-01 2.878543e-01 3.315553e-01 3.640320e-01 3.835804e-01 3.887904e-01 3.786832e-01 3.528624e-01 3.116599e-01 2.562479e-01 1.886862e-01 1.118776e-01 2.941782e-02 -5.465270e-02 -1.361651e-01 -2.111580e-01 -2.761809e-01 -3.285194e-01 -3.663201e-01 -3.886108e-01 -3.952356e-01 -3.587499e-01 -3.384158e-01 -3.062821e-01 -2.639249e-01 -2.131001e-01 -1.556721e-01 -9.356353e-02 -2.872488e-02 3.688207e-02 1.012928e-01 1.625460e-01 2.186934e-01 2.678189e-01 3.080736e-01 3.377301e-01 3.552603e-01 3.594361e-01 3.494480e-01 3.250325e-01 2.865886e-01 2.352638e-01 1.729817e-01 1.023938e-01 2.674317e-02 -5.034928e-02 -1.251540e-01 -1.941168e-01 -2.541176e-01 -3.026667e-01 -3.380195e-01 -3.592051e-01 -3.659834e-01 -3.323050e-01 -3.140042e-01 -2.846407e-01 -2.456307e-01 -1.985855e-01 -1.452442e-01 -8.742329e-02 -2.698306e-02 3.419521e-02 9.422456e-02 1.512257e-01 2.033438e-01 2.487731e-01 2.857944e-01 3.128293e-01 3.285125e-01 3.317805e-01 3.219742e-01 2.989431e-01 2.631382e-01 2.156743e-01 1.583429e-01 9.356125e-02 2.425050e-02 -4.634892e-02 -1.149047e-01 -1.782327e-01 -2.335159e-01 -2.784754e-01 -3.114747e-01 -3.315547e-01 -3.384073e-01 -3.082603e-01 -2.917604e-01 -2.648827e-01 -2.289006e-01 -1.852937e-01 -1.356851e-01 -8.179130e-02 -2.538590e-02 3.172807e-02 8.773939e-02 1.408484e-01 1.892896e-01 2.313607e-01 2.654622e-01 2.901506e-01 3.042051e-01 3.067061e-01 2.971226e-01 2.753970e-01 2.420175e-01 1.980621e-01 1.451996e-01 8.563738e-02 2.201288e-02 -4.276620e-02 -1.057145e-01 -1.639720e-01 -2.149898e-01 -2.566793e-01 -2.875061e-01 -3.065299e-01 -3.133913e-01 -2.873091e-01 -2.723412e-01 -2.476037e-01 -2.142475e-01 -1.736377e-01 -1.272947e-01 -7.684528e-02 -2.398365e-02 2.955930e-02 8.204255e-02 1.317398e-01 1.769668e-01 2.161139e-01 2.476871e-01 2.703600e-01 2.830348e-01 2.849127e-01 2.755674e-01 2.550147e-01 2.237682e-01 1.828681e-01 1.338743e-01 7.881442e-02 2.008511e-02 -3.968586e-02 -9.780477e-02 -1.516845e-01 -1.990046e-01 -2.378402e-01 -2.667496e-01 -2.848145e-01 -2.916382e-01 -2.699859e-01 -2.562585e-01 -2.332721e-01 -2.020782e-01 -1.639474e-01 -1.203139e-01 -7.272824e-02 -2.281670e-02 2.775252e-02 7.729943e-02 1.241613e-01 1.667233e-01 2.034543e-01 2.329485e-01 2.539754e-01 2.655373e-01 2.669316e-01 2.578141e-01 2.382559e-01 2.087861e-01 1.704107e-01 1.245984e-01 7.322937e-02 1.850642e-02 -3.716754e-02 -9.133250e-02 -1.416209e-01 -1.858966e-01 -2.223699e-01 -2.496770e-01 -2.669222e-01 -2.736832e-01 -2.566842e-01 -2.438930e-01 -2.222398e-01 -1.927008e-01 -1.564738e-01 -1.149266e-01 -6.954985e-02 -2.191597e-02 2.635673e-02 7.363701e-02 1.183126e-01 1.588239e-01 1.937008e-01 2.216056e-01 2.413813e-01 2.521058e-01 2.531482e-01 2.442243e-01 2.254446e-01 1.973473e-01 1.609095e-01 1.175292e-01 6.897506e-02 1.730346e-02 -3.525114e-02 -8.640382e-02 -1.339517e-01 -1.758980e-01 -2.105558e-01 -2.366224e-01 -2.532219e-01 -2.599154e-01 -2.476761e-01 -2.355109e-01 -2.147550e-01 -1.863338e-01 -1.513963e-01 -1.112649e-01 -6.738891e-02 -2.130367e-02 2.540728e-02 7.114664e-02 1.143373e-01 1.534575e-01 1.870793e-01 2.139112e-01 2.328460e-01 2.430119e-01 2.438256e-01 2.350420e-01 2.167968e-01 1.896327e-01 1.545066e-01 1.127681e-01 6.611074e-02 1.649335e-02 -3.396179e-02 -8.308616e-02 -1.287866e-01 -1.691594e-01 -2.025870e-01 -2.278086e-01 -2.439629e-01 -2.506011e-01 -2.431315e-01 -2.312796e-01 -2.109746e-01 -1.831166e-01 -1.488297e-01 -1.094134e-01 -6.629608e-02 -2.099403e-02 2.492699e-02 6.988711e-02 1.123272e-01 1.507450e-01 1.837337e-01 2.100255e-01 2.285379e-01 2.384246e-01 2.391258e-01 2.304159e-01 2.124425e-01 1.857505e-01 1.512859e-01 1.103741e-01 6.467077e-02 1.608602e-02 -3.331388e-02 -8.141850e-02 -1.261895e-01 -1.657697e-01 -1.985764e-01 -2.233702e-01 -2.392974e-01 -2.459049e-01 -2.476761e-01 -2.355109e-01 -2.147550e-01 -1.863338e-01 -1.513963e-01 -1.112649e-01 -6.738891e-02 -2.130367e-02 2.540728e-02 7.114664e-02 1.143373e-01 1.534575e-01 1.870793e-01 2.139112e-01 2.328460e-01 2.430119e-01 2.438256e-01 2.350420e-01 2.167968e-01 1.896327e-01 1.545066e-01 1.127681e-01 6.611074e-02 1.649335e-02 -3.396179e-02 -8.308616e-02 -1.287866e-01 -1.691594e-01 -2.025870e-01 -2.278086e-01 -2.439629e-01 -2.506011e-01 -2.524641e-01 -2.399606e-01 -2.187238e-01 -1.897063e-01 -1.540835e-01 -1.132014e-01 -6.853120e-02 -2.162720e-02 2.590919e-02 7.246332e-02 1.164400e-01 1.562980e-01 1.905872e-01 2.179917e-01 2.373778e-01 2.478463e-01 2.487879e-01 2.399360e-01 2.214115e-01 1.937540e-01 1.579304e-01 1.153160e-01 6.764447e-02 1.692739e-02 -3.465207e-02 -8.486217e-02 -1.315502e-01 -1.727623e-01 -2.068435e-01 -2.325112e-01 -2.488970e-01 -2.555583e-01 -2.619627e-01 -2.487821e-01 -2.265870e-01 -1.963847e-01 -1.594023e-01 -1.170334e-01 -7.079107e-02 -2.226731e-02 2.690184e-02 7.506797e-02 1.206008e-01 1.619206e-01 1.975341e-01 2.260771e-01 2.463630e-01 2.574382e-01 2.586409e-01 2.496600e-01 2.305871e-01 2.019537e-01 1.647463e-01 1.203903e-01 7.069972e-02 1.779191e-02 -3.602778e-02 -8.840052e-02 -1.370542e-01 -1.799341e-01 -2.153115e-01 -2.418605e-01 -2.586995e-01 -2.653994e-01 -2.760083e-01 -2.618121e-01 -2.381900e-01 -2.062308e-01 -1.672384e-01 -1.226760e-01 -7.411766e-02 -2.320969e-02 2.836228e-02 7.890156e-02 1.267275e-01 1.702049e-01 2.077776e-01 2.380102e-01 2.596379e-01 2.716252e-01 2.732313e-01 2.640767e-01 2.442063e-01 2.141373e-01 1.748828e-01 1.279419e-01 7.524853e-02 1.907878e-02 -3.807754e-02 -9.366970e-02 -1.452454e-01 -1.905989e-01 -2.278915e-01 -2.557344e-01 -2.732291e-01 -2.799687e-01 -2.943355e-01 -2.787882e-01 -2.532861e-01 -2.190257e-01 -1.774116e-01 -1.299961e-01 -7.843137e-02 -2.443190e-02 3.025476e-02 8.387180e-02 1.346757e-01 1.809610e-01 2.210915e-01 2.535396e-01 2.769382e-01 2.901431e-01 2.923065e-01 2.829557e-01 2.620693e-01 2.301405e-01 1.882138e-01 1.378831e-01 8.124019e-02 2.077334e-02 -4.078034e-02 -1.006123e-01 -1.560288e-01 -2.046230e-01 -2.444119e-01 -2.739263e-01 -2.922497e-01 -2.990099e-01 -3.165543e-01 -2.993299e-01 -2.715216e-01 -2.344586e-01 -1.896672e-01 -1.388067e-01 -8.362067e-02 -2.590249e-02 3.252935e-02 8.984949e-02 1.442422e-01 1.939208e-01 2.371541e-01 2.723046e-01 2.978802e-01 3.126025e-01 3.154892e-01 3.059473e-01 2.838670e-01 2.497046e-01 2.045369e-01 1.500703e-01 8.859104e-02 2.285151e-02 -4.410073e-02 -1.091330e-01 -1.692492e-01 -2.217920e-01 -2.646024e-01 -2.961171e-01 -3.154040e-01 -3.221413e-01 -3.421262e-01 -3.229186e-01 -2.924195e-01 -2.521139e-01 -2.036679e-01 -1.488612e-01 -8.953890e-02 -2.758005e-02 3.512078e-02 9.666503e-02 1.551593e-01 2.087282e-01 2.555351e-01 2.938175e-01 3.219393e-01 3.384641e-01 3.422482e-01 3.325506e-01 3.091487e-01 2.724454e-01 2.235462e-01 1.642838e-01 9.717163e-02 2.527619e-02 -4.798289e-02 -1.190838e-01 -1.846682e-01 -2.417826e-01 -2.880632e-01 -3.218432e-01 -3.421823e-01 -3.488272e-01 -3.703405e-01 -3.488791e-01 -3.153666e-01 -2.714624e-01 -2.189870e-01 -1.598496e-01 -9.600231e-02 -2.941265e-02 3.794765e-02 1.041061e-01 1.670904e-01 2.249329e-01 2.756854e-01 3.174499e-01 3.484311e-01 3.670142e-01 3.718696e-01 3.620813e-01 3.372882e-01 2.978199e-01 2.448027e-01 1.802043e-01 1.067925e-01 2.799335e-02 -5.234386e-02 -1.302468e-01 -2.019398e-01 -2.641317e-01 -3.142308e-01 -3.504629e-01 -3.718903e-01 -3.783504e-01 -4.002991e-01 -3.763692e-01 -3.396061e-01 -2.918578e-01 -2.351073e-01 -1.713982e-01 -1.027901e-01 -3.133777e-02 4.091272e-02 1.119181e-01 1.796297e-01 2.419885e-01 2.969332e-01 3.424251e-01 3.764995e-01 3.973481e-01 4.034352e-01 3.936456e-01 3.674545e-01 3.250969e-01 2.677074e-01 1.973911e-01 1.171903e-01 3.092818e-02 -5.706681e-02 -1.423185e-01 -2.205863e-01 -2.882078e-01 -3.423481e-01 -3.811268e-01 -4.036243e-01 -4.097912e-01 -4.309156e-01 -4.043826e-01 -3.642440e-01 -3.125431e-01 -2.514279e-01 -1.830750e-01 -1.096480e-01 -3.328336e-02 4.390455e-02 1.198081e-01 1.923081e-01 2.592596e-01 3.184908e-01 3.678231e-01 4.051189e-01 4.283682e-01 4.358154e-01 4.261279e-01 3.985954e-01 3.533376e-01 2.914820e-01 2.152663e-01 1.280180e-01 3.398245e-02 -6.199595e-02 -1.548970e-01 -2.399808e-01 -3.131919e-01 -3.714454e-01 -4.127628e-01 -4.362596e-01 -4.420215e-01 -4.609353e-01 -4.317709e-01 -3.882705e-01 -3.326710e-01 -2.672809e-01 -1.944025e-01 -1.162956e-01 -3.516986e-02 4.680095e-02 1.274537e-01 2.046072e-01 2.760391e-01 3.394753e-01 3.926030e-01 4.331162e-01 4.588036e-01 4.676855e-01 4.582022e-01 4.294440e-01 3.813976e-01 3.151672e-01 2.331120e-01 1.388422e-01 3.703400e-02 -6.693470e-02 -1.674792e-01 -2.593444e-01 -3.380755e-01 -4.003429e-01 -4.440829e-01 -4.684636e-01 -4.737224e-01 -4.889837e-01 -4.572898e-01 -4.106019e-01 -3.513398e-01 -2.819599e-01 -2.048783e-01 -1.224389e-01 -3.691373e-02 4.947436e-02 1.345169e-01 2.159815e-01 2.915792e-01 3.589453e-01 4.156455e-01 4.592172e-01 4.872585e-01 4.975729e-01 4.883766e-01 4.585569e-01 4.079585e-01 3.376474e-01 2.500869e-01 1.491527e-01 3.993956e-02 -7.164957e-02 -1.794711e-01 -2.777636e-01 -3.616869e-01 -4.276840e-01 -4.736236e-01 -4.987402e-01 -5.034315e-01 -5.136445e-01 -4.796694e-01 -4.301423e-01 -3.676443e-01 -2.947603e-01 -2.140032e-01 -1.277865e-01 -3.843211e-02 5.179895e-02 1.406635e-01 2.258891e-01 3.051329e-01 3.759548e-01 4.358166e-01 4.821192e-01 5.122910e-01 5.239400e-01 5.150756e-01 4.843934e-01 4.315982e-01 3.577082e-01 2.652685e-01 1.583883e-01 4.254184e-02 -7.588135e-02 -1.902174e-01 -2.942370e-01 -3.827516e-01 -4.520077e-01 -4.998257e-01 -5.255137e-01 -5.296254e-01 -5.335641e-01 -4.977069e-01 -4.458613e-01 -3.807391e-01 -3.050277e-01 -2.213155e-01 -1.320694e-01 -3.964847e-02 5.365902e-02 1.455851e-01 2.338285e-01 3.160060e-01 3.896195e-01 4.520489e-01 5.005857e-01 5.325208e-01 5.453004e-01 5.367606e-01 5.054336e-01 4.508998e-01 3.741287e-01 2.777228e-01 1.659772e-01 4.468073e-02 -7.936433e-02 -1.990500e-01 -3.077504e-01 -3.999897e-01 -4.718603e-01 -5.211535e-01 -5.472483e-01 -5.508345e-01 -5.475732e-01 -5.103711e-01 -4.568814e-01 -3.899082e-01 -3.122099e-01 -2.264269e-01 -1.350620e-01 -4.049850e-02 5.495779e-02 1.490234e-01 2.393784e-01 3.236129e-01 3.991895e-01 4.634320e-01 5.135554e-01 5.467534e-01 5.603571e-01 5.520774e-01 5.203267e-01 4.645925e-01 3.858031e-01 2.865962e-01 1.713928e-01 4.620800e-02 -8.185246e-02 -2.053533e-01 -3.173771e-01 -4.122427e-01 -4.859394e-01 -5.362449e-01 -5.625940e-01 -5.657786e-01 -5.548078e-01 -5.169041e-01 -4.625610e-01 -3.946302e-01 -3.159064e-01 -2.290564e-01 -1.366011e-01 -4.093572e-02 5.562546e-02 1.507915e-01 2.422334e-01 3.275283e-01 4.041186e-01 4.692997e-01 5.202475e-01 5.541052e-01 5.681440e-01 5.600094e-01 5.280504e-01 4.717044e-01 3.918767e-01 2.912199e-01 1.742178e-01 4.700512e-02 -8.315098e-02 -2.086410e-01 -3.223927e-01 -4.186162e-01 -4.932507e-01 -5.440695e-01 -5.705389e-01 -5.735053e-01 -5.548078e-01 -5.169041e-01 -4.625610e-01 -3.946302e-01 -3.159064e-01 -2.290564e-01 -1.366011e-01 -4.093572e-02 5.562546e-02 1.507915e-01 2.422334e-01 3.275283e-01 4.041186e-01 4.692997e-01 5.202475e-01 5.541052e-01 5.681440e-01 5.600094e-01 5.280504e-01 4.717044e-01 3.918767e-01 2.912199e-01 1.742178e-01 4.700512e-02 -8.315098e-02 -2.086410e-01 -3.223927e-01 -4.186162e-01 -4.932507e-01 -5.440695e-01 -5.705389e-01 -5.735053e-01 -5.475732e-01 -5.103711e-01 -4.568814e-01 -3.899082e-01 -3.122099e-01 -2.264269e-01 -1.350620e-01 -4.049850e-02 5.495779e-02 1.490234e-01 2.393784e-01 3.236129e-01 3.991895e-01 4.634320e-01 5.135554e-01 5.467534e-01 5.603571e-01 5.520774e-01 5.203267e-01 4.645925e-01 3.858031e-01 2.865962e-01 1.713928e-01 4.620800e-02 -8.185246e-02 -2.053533e-01 -3.173771e-01 -4.122427e-01 -4.859394e-01 -5.362449e-01 -5.625940e-01 -5.657786e-01 -5.335641e-01 -4.977069e-01 -4.458613e-01 -3.807391e-01 -3.050277e-01 -2.213155e-01 -1.320694e-01 -3.964847e-02 5.365902e-02 1.455851e-01 2.338285e-01 3.160060e-01 3.896195e-01 4.520489e-01 5.005857e-01 5.325208e-01 5.453004e-01 5.367606e-01 5.054336e-01 4.508998e-01 3.741287e-01 2.777228e-01 1.659772e-01 4.468073e-02 -7.936433e-02 -1.990500e-01 -3.077504e-01 -3.999897e-01 -4.718603e-01 -5.211535e-01 -5.472483e-01 -5.508345e-01 -5.136445e-01 -4.796694e-01 -4.301423e-01 -3.676443e-01 -2.947603e-01 -2.140032e-01 -1.277865e-01 -3.843211e-02 5.179895e-02 1.406635e-01 2.258891e-01 3.051329e-01 3.759548e-01 4.358166e-01 4.821192e-01 5.122910e-01 5.239400e-01 5.150756e-01 4.843934e-01 4.315982e-01 3.577082e-01 2.652685e-01 1.583883e-01 4.254184e-02 -7.588135e-02 -1.902174e-01 -2.942370e-01 -3.827516e-01 -4.520077e-01 -4.998257e-01 -5.255137e-01 -5.296254e-01 -4.889837e-01 -4.572898e-01 -4.106019e-01 -3.513398e-01 -2.819599e-01 -2.048783e-01 -1.224389e-01 -3.691373e-02 4.947436e-02 1.345169e-01 2.159815e-01 2.915792e-01 3.589453e-01 4.156455e-01 4.592172e-01 4.872585e-01 4.975729e-01 4.883766e-01 4.585569e-01 4.079585e-01 3.376474e-01 2.500869e-01 1.491527e-01 3.993956e-02 -7.164957e-02 -1.794711e-01 -2.777636e-01 -3.616869e-01 -4.276840e-01 -4.736236e-01 -4.987402e-01 -5.034315e-01 -4.609353e-01 -4.317709e-01 -3.882705e-01 -3.326710e-01 -2.672809e-01 -1.944025e-01 -1.162956e-01 -3.516986e-02 4.680095e-02 1.274537e-01 2.046072e-01 2.760391e-01 3.394753e-01 3.926030e-01 4.331162e-01 4.588036e-01 4.676855e-01 4.582022e-01 4.294440e-01 3.813976e-01 3.151672e-01 2.331120e-01 1.388422e-01 3.703400e-02 -6.693470e-02 -1.674792e-01 -2.593444e-01 -3.380755e-01 -4.003429e-01 -4.440829e-01 -4.684636e-01 -4.737224e-01 -4.309156e-01 -4.043826e-01 -3.642440e-01 -3.125431e-01 -2.514279e-01 -1.830750e-01 -1.096480e-01 -3.328336e-02 4.390455e-02 1.198081e-01 1.923081e-01 2.592595e-01 3.184908e-01 3.678231e-01 4.051189e-01 4.283682e-01 4.358154e-01 4.261279e-01 3.985954e-01 3.533376e-01 2.914820e-01 2.152663e-01 1.280180e-01 3.398245e-02 -6.199595e-02 -1.548970e-01 -2.399808e-01 -3.131919e-01 -3.714454e-01 -4.127628e-01 -4.362596e-01 -4.420215e-01 -4.002991e-01 -3.763692e-01 -3.396061e-01 -2.918578e-01 -2.351073e-01 -1.713982e-01 -1.027901e-01 -3.133777e-02 4.091272e-02 1.119181e-01 1.796297e-01 2.419885e-01 2.969332e-01 3.424251e-01 3.764995e-01 3.973481e-01 4.034352e-01 3.936456e-01 3.674545e-01 3.250969e-01 2.677074e-01 1.973911e-01 1.171903e-01 3.092818e-02 -5.706681e-02 -1.423185e-01 -2.205863e-01 -2.882078e-01 -3.423481e-01 -3.811268e-01 -4.036243e-01 -4.097912e-01 -3.703405e-01 -3.488791e-01 -3.153666e-01 -2.714624e-01 -2.189870e-01 -1.598496e-01 -9.600231e-02 -2.941265e-02 3.794765e-02 1.041061e-01 1.670904e-01 2.249329e-01 2.756854e-01 3.174499e-01 3.484311e-01 3.670142e-01 3.718696e-01 3.620813e-01 3.372882e-01 2.978199e-01 2.448027e-01 1.802043e-01 1.067925e-01 2.799335e-02 -5.234386e-02 -1.302468e-01 -2.019398e-01 -2.641317e-01 -3.142308e-01 -3.504629e-01 -3.718903e-01 -3.783504e-01 -3.421262e-01 -3.229186e-01 -2.924195e-01 -2.521139e-01 -2.036679e-01 -1.488612e-01 -8.953890e-02 -2.758005e-02 3.512078e-02 9.666503e-02 1.551593e-01 2.087282e-01 2.555351e-01 2.938175e-01 3.219393e-01 3.384641e-01 3.422482e-01 3.325506e-01 3.091487e-01 2.724454e-01 2.235462e-01 1.642838e-01 9.717163e-02 2.527619e-02 -4.798289e-02 -1.190838e-01 -1.846682e-01 -2.417826e-01 -2.880632e-01 -3.218432e-01 -3.421823e-01 -3.488272e-01 -3.165543e-01 -2.993299e-01 -2.715216e-01 -2.344586e-01 -1.896672e-01 -1.388067e-01 -8.362067e-02 -2.590249e-02 3.252935e-02 8.984949e-02 1.442422e-01 1.939208e-01 2.371541e-01 2.723046e-01 2.978802e-01 3.126025e-01 3.154892e-01 3.059473e-01 2.838670e-01 2.497046e-01 2.045369e-01 1.500703e-01 8.859104e-02 2.285151e-02 -4.410073e-02 -1.091330e-01 -1.692492e-01 -2.217920e-01 -2.646024e-01 -2.961171e-01 -3.154040e-01 -3.221413e-01 -2.943355e-01 -2.787882e-01 -2.532861e-01 -2.190257e-01 -1.774116e-01 -1.299961e-01 -7.843137e-02 -2.443190e-02 3.025476e-02 8.387180e-02 1.346757e-01 1.809610e-01 2.210915e-01 2.535396e-01 2.769382e-01 2.901431e-01 2.923065e-01 2.829557e-01 2.620693e-01 2.301405e-01 1.882138e-01 1.378831e-01 8.124019e-02 2.077334e-02 -4.078034e-02 -1.006123e-01 -1.560288e-01 -2.046230e-01 -2.444119e-01 -2.739263e-01 -2.922497e-01 -2.990099e-01 -2.760083e-01 -2.618121e-01 -2.381900e-01 -2.062308e-01 -1.672384e-01 -1.226760e-01 -7.411766e-02 -2.320969e-02 2.836228e-02 7.890156e-02 1.267275e-01 1.702049e-01 2.077776e-01 2.380102e-01 2.596379e-01 2.716252e-01 2.732313e-01 2.640767e-01 2.442063e-01 2.141373e-01 1.748828e-01 1.279419e-01 7.524853e-02 1.907878e-02 -3.807754e-02 -9.366970e-02 -1.452454e-01 -1.905989e-01 -2.278915e-01 -2.557344e-01 -2.732291e-01 -2.799687e-01 -2.619627e-01 -2.487821e-01 -2.265870e-01 -1.963847e-01 -1.594023e-01 -1.170334e-01 -7.079107e-02 -2.226731e-02 2.690184e-02 7.506797e-02 1.206008e-01 1.619206e-01 1.975341e-01 2.260771e-01 2.463630e-01 2.574382e-01 2.586409e-01 2.496600e-01 2.305871e-01 2.019537e-01 1.647463e-01 1.203903e-01 7.069972e-02 1.779191e-02 -3.602778e-02 -8.840052e-02 -1.370542e-01 -1.799341e-01 -2.153115e-01 -2.418605e-01 -2.586995e-01 -2.653994e-01 -2.524641e-01 -2.399606e-01 -2.187238e-01 -1.897063e-01 -1.540835e-01 -1.132014e-01 -6.853120e-02 -2.162720e-02 2.590919e-02 7.246332e-02 1.164400e-01 1.562980e-01 1.905872e-01 2.179917e-01 2.373778e-01 2.478463e-01 2.487879e-01 2.399360e-01 2.214115e-01 1.937540e-01 1.579304e-01 1.153160e-01 6.764447e-02 1.692739e-02 -3.465207e-02 -8.486217e-02 -1.315502e-01 -1.727623e-01 -2.068435e-01 -2.325112e-01 -2.488970e-01 -2.555583e-01 -2.476761e-01 -2.355109e-01 -2.147550e-01 -1.863338e-01 -1.513963e-01 -1.112649e-01 -6.738891e-02 -2.130367e-02 2.540728e-02 7.114664e-02 1.143373e-01 1.534575e-01 1.870793e-01 2.139112e-01 2.328460e-01 2.430119e-01 2.438256e-01 2.350420e-01 2.167968e-01 1.896327e-01 1.545066e-01 1.127681e-01 6.611074e-02 1.649335e-02 -3.396179e-02 -8.308616e-02 -1.287866e-01 -1.691594e-01 -2.025870e-01 -2.278086e-01 -2.439629e-01 -2.506011e-01 -2.566842e-01 -2.438930e-01 -2.222398e-01 -1.927008e-01 -1.564738e-01 -1.149266e-01 -6.954985e-02 -2.191597e-02 2.635673e-02 7.363701e-02 1.183126e-01 1.588239e-01 1.937008e-01 2.216056e-01 2.413813e-01 2.521058e-01 2.531482e-01 2.442243e-01 2.254446e-01 1.973473e-01 1.609095e-01 1.175292e-01 6.897506e-02 1.730346e-02 -3.525114e-02 -8.640382e-02 -1.339517e-01 -1.758980e-01 -2.105558e-01 -2.366224e-01 -2.532219e-01 -2.599154e-01 -2.619627e-01 -2.487821e-01 -2.265870e-01 -1.963847e-01 -1.594023e-01 -1.170334e-01 -7.079107e-02 -2.226731e-02 2.690184e-02 7.506797e-02 1.206008e-01 1.619206e-01 1.975341e-01 2.260771e-01 2.463630e-01 2.574382e-01 2.586409e-01 2.496600e-01 2.305871e-01 2.019537e-01 1.647463e-01 1.203903e-01 7.069972e-02 1.779191e-02 -3.602778e-02 -8.840052e-02 -1.370542e-01 -1.799341e-01 -2.153115e-01 -2.418605e-01 -2.586995e-01 -2.653994e-01 -2.724507e-01 -2.584883e-01 -2.352108e-01 -2.036881e-01 -1.652050e-01 -1.212063e-01 -7.324889e-02 -2.296305e-02 2.798088e-02 7.790126e-02 1.251329e-01 1.680568e-01 2.051344e-01 2.349488e-01 2.562545e-01 2.680349e-01 2.695659e-01 2.604815e-01 2.408340e-01 2.111400e-01 1.724031e-01 1.261029e-01 7.414448e-02 1.876743e-02 -3.757979e-02 -9.238917e-02 -1.432488e-01 -1.879879e-01 -2.247942e-01 -2.522962e-01 -2.696027e-01 -2.763055e-01 -2.879995e-01 -2.728582e-01 -2.479624e-01 -2.144756e-01 -1.737684e-01 -1.273604e-01 -7.687223e-02 -2.398881e-02 2.957071e-02 8.207758e-02 1.318169e-01 1.771133e-01 2.163622e-01 2.480697e-01 2.709025e-01 2.837492e-01 2.857911e-01 2.765771e-01 2.560970e-01 2.248415e-01 1.838367e-01 1.346411e-01 7.929595e-02 2.022604e-02 -3.990275e-02 -9.835530e-02 -1.525076e-01 -2.000129e-01 -2.389354e-01 -2.678369e-01 -2.858154e-01 -2.924981e-01 -3.083599e-01 -2.916391e-01 -2.645996e-01 -2.285294e-01 -1.849113e-01 -1.353610e-01 -8.158022e-02 -2.532180e-02 3.163484e-02 8.750307e-02 1.405065e-01 1.888994e-01 2.309930e-01 2.651938e-01 2.900533e-01 3.043341e-01 3.070887e-01 2.977484e-01 2.762138e-01 2.429340e-01 1.989588e-01 1.459480e-01 8.612326e-02 2.215872e-02 -4.298509e-02 -1.062647e-01 -1.647688e-01 -2.159150e-01 -2.576036e-01 -2.883129e-01 -3.071329e-01 