<VTKFile type="PolyData">
<PolyData>
<Piece NumberOfPoints="26" NumberOfVerts="0" NumberOfLines="0" NumberOfStrips="0" NumberOfPolys="0">
<Points>
<DataArray type="Float32" NumberOfComponents="3" format="ascii">
-1.800411 0.000000 0.000000 0.999589 1.200000 0.000000 -0.200411 0.000000 0.000000 0.999589 -1.200000 0.000000 0.999589 0.000000 1.200000 0.999589 0.000000 -1.200000 1.848117 0.848528 0.000000 0.151061 0.848528 0.000000 0.151061 -0.848528 0.000000 1.848117 -0.848528 0.000000 1.848117 0.000000 0.848528 0.999589 0.848528 0.848528 0.151061 0.000000 0.848528 0.999589 -0.848528 0.848528 1.848117 0.000000 -0.848528 0.999589 0.848528 -0.848528 0.151061 0.000000 -0.848528 0.999589 -0.848528 -0.848528 1.692409 0.692820 0.692820 0.306768 0.692820 0.692820 0.306768 -0.692820 0.692820 1.692409 -0.692820 0.692820 1.692409 0.692820 -0.692820 0.306768 0.692820 -0.692820 0.306768 -0.692820 -0.692820 1.692409 -0.692820 -0.692820 
</DataArray>
</Points>
<PointData Scalars="n status">
<DataArray type="Int32" Name="n" format="ascii">
0 0 0 0 0 0 0 0 0 0 0 0 0 0 0 0 0 0 0 0 0 0 0 0 0 0 
</DataArray>
<DataArray type="Int32" Name="status" format="ascii">
-1 -1 -1 -1 -1 -1 -1 -1 -1 -1 -1 -1 -1 -1 -1 -1 -1 -1 -1 -1 -1 -1 -1 -1 -1 -1 
</DataArray>
</PointData>
</Piece>
</PolyData>
</VTKFile>
