<VTKFile type="RectilinearGrid">
<RectilinearGrid WholeExtent="0 32 0 32 0 32" GhostLevel="0">
<Piece Extent="0 32 0 32 0 32">
<CellData Scalars="p phase" Vectors="vel">
<DataArray type="Float32" Name="p">
-2.028418e-01 -1.934909e-01 -1.769826e-01 -1.540540e-01 -1.256355e-01 -9.280940e-02 -5.677139e-02 -1.879444e-02 1.980372e-02 5.769129e-02 9.355232e-02 1.261175e-01 1.541972e-01 1.767171e-01 1.927580e-01 2.015970e-01 2.027500e-01 1.960108e-01 1.814836e-01 1.596037e-01 1.311413e-01 9.718469e-02 5.910115e-02 1.847511e-02 -2.297185e-02 -6.347348e-02 -1.013154e-01 -1.349267e-01 -1.629590e-01 -1.843461e-01 -1.983416e-01 -2.045342e-01 -2.066724e-01 -1.970706e-01 -1.801937e-01 -1.567997e-01 -1.278397e-01 -9.441562e-02 -5.774097e-02 -1.910509e-02 2.015898e-02 5.870444e-02 9.519999e-02 1.283599e-01 1.569764e-01 1.799557e-01 1.963578e-01 2.054388e-01 2.066948e-01 1.999035e-01 1.851588e-01 1.628941e-01 1.338877e-01 9.924777e-02 6.037222e-02 1.888551e-02 -2.344458e-02 -6.480353e-02 -1.034311e-01 -1.377169e-01 -1.662825e-01 -1.880430e-01 -2.022444e-01 -2.084779e-01 -2.142663e-01 -2.041631e-01 -1.865524e-01 -1.622342e-01 -1.322008e-01 -9.759270e-02 -5.965841e-02 -1.971938e-02 2.086142e-02 6.070801e-02 9.845906e-02 1.327966e-01 1.624775e-01 1.863693e-01 2.034905e-01 2.130553e-01 2.145203e-01 2.076304e-01 1.924583e-01 1.694327e-01 1.393480e-01 1.033510e-01 6.290088e-02 1.970202e-02 -2.438523e-02 -6.744962e-02 -1.076389e-01 -1.432641e-01 -1.728870e-01 -1.953854e-01 -2.099910e-01 -2.163010e-01 -2.254828e-01 -2.146291e-01 -1.959275e-01 -1.702406e-01 -1.386218e-01 -1.022681e-01 -6.247921e-02 -2.062300e-02 2.189452e-02 6.365540e-02 1.032551e-01 1.393289e-01 1.705822e-01 1.958255e-01 2.140163e-01 2.243059e-01 2.260913e-01 2.190671e-01 2.032730e-01 1.791288e-01 1.474514e-01 1.094443e-01 6.665744e-02 2.091517e-02 -2.578317e-02 -7.138085e-02 -1.138876e-01 -1.514963e-01 -1.826802e-01 -2.062630e-01 -2.214562e-01 -2.278675e-01 -2.400960e-01 -2.282467e-01 -2.081110e-01 -1.806346e-01 -1.469504e-01 -1.083284e-01 -6.613406e-02 -2.179366e-02 2.323257e-02 6.747404e-02 1.094718e-01 1.478021e-01 1.811044e-01 2.081155e-01 2.277129e-01 2.389649e-01 2.411885e-01 2.340100e-01 2.174222e-01 1.918305e-01 1.580780e-01 1.174416e-01 7.159073e-02 2.250861e-02 -2.761995e-02 -7.654390e-02 -1.220889e-01 -1.622913e-01 -1.955082e-01 -2.204933e-01 -2.364348e-01 -2.429576e-01 -2.577788e-01 -2.446978e-01 -2.228077e-01 -1.931563e-01 -1.569731e-01 -1.156156e-01 -7.052639e-02 -2.320030e-02 2.483986e-02 7.206289e-02 1.169470e-01 1.579993e-01 1.937814e-01 2.229420e-01 2.442613e-01 2.567052e-01 2.594909e-01 2.521571e-01 2.346346e-01 2.073061e-01 1.710431e-01 1.272093e-01 7.762048e-02 2.445663e-02 -2.986640e-02 -8.285506e-02 -1.321058e-01 -1.754612e-01 -2.111364e-01 -2.378024e-01 -2.546230e-01 -2.612490e-01 -2.780860e-01 -2.635541e-01 -2.396236e-01 -2.074616e-01 -1.684090e-01 -1.239223e-01 -7.553009e-02 -2.480245e-02 2.666985e-02 7.729001e-02 1.254679e-01 1.696348e-01 2.082653e-01 2.399082e-01 2.632314e-01 2.770813e-01 2.805555e-01 2.730862e-01 2.545258e-01 2.252236e-01 1.860782e-01 1.385513e-01 8.462809e-02 2.672115e-02 -3.247916e-02 -9.019050e-02 -1.437370e-01 -1.907330e-01 -2.292287e-01 -2.578028e-01 -2.755965e-01 -2.822978e-01 -3.004381e-01 -2.842643e-01 -2.580564e-01 -2.231157e-01 -1.809055e-01 -1.329896e-01 -8.098812e-02 -2.654970e-02 2.866477e-02 8.299120e-02 1.347689e-01 1.823500e-01 2.241161e-01 2.585079e-01 2.840696e-01 2.995129e-01 3.037988e-01 2.962342e-01 2.765763e-01 2.451284e-01 2.028120e-01 1.511933e-01 9.244676e-02 2.924856e-02 -3.539685e-02 -9.837592e-02 -1.567013e-01 -2.077288e-01 -2.493253e-01 -2.799709e-01 -2.987898e-01 -3.055198e-01 -3.241128e-01 -3.061483e-01 -2.774926e-01 -2.395914e-01 -1.940380e-01 -1.425073e-01 -8.671297e-02 -2.838198e-02 3.075582e-02 8.897049e-02 1.445319e-01 1.957128e-01 2.408005e-01 2.781227e-01 3.060924e-01 3.232760e-01 3.284835e-01 3.208809e-01 3.001134e-01 2.664250e-01 2.207527e-01 1.647694e-01 1.008526e-01 3.196676e-02 -3.853664e-02 -1.071771e-01 -1.706235e-01 -2.259488e-01 -2.708241e-01 -3.036297e-01 -3.234802e-01 -3.301774e-01 -3.482463e-01 -3.284016e-01 -2.972130e-01 -2.562759e-01 -2.073159e-01 -1.521190e-01 -9.248983e-02 -3.023048e-02 3.286441e-02 9.500345e-02 1.543912e-01 2.092245e-01 2.576980e-01 2.980268e-01 3.284905e-01 3.475040e-01 3.537177e-01 3.461445e-01 3.243040e-01 2.883679e-01 2.392788e-01 1.788136e-01 1.095589e-01 3.478327e-02 -4.179194e-02 -1.162939e-01 -1.850254e-01 -2.447615e-01 -2.929720e-01 -3.279410e-01 -3.487837e-01 -3.553789e-01 -3.718516e-01 -3.501140e-01 -3.164111e-01 -2.724874e-01 -2.201971e-01 -1.614324e-01 -9.808309e-02 -3.201984e-02 3.490459e-02 1.008441e-01 1.639445e-01 2.223331e-01 2.741181e-01 3.174066e-01 3.503478e-01 3.712062e-01 3.784704e-01 3.709945e-01 3.481639e-01 3.100670e-01 2.576416e-01 1.927604e-01 1.182162e-01 3.758532e-02 -4.503230e-02 -1.253605e-01 -1.993270e-01 -2.634064e-01 -3.148704e-01 -3.519154e-01 -3.736680e-01 -3.800946e-01 -3.938572e-01 -3.703064e-01 -3.342270e-01 -2.875040e-01 -2.321109e-01 -1.700366e-01 -1.032466e-01 -3.367135e-02 3.678677e-02 1.062353e-01 1.727702e-01 2.344578e-01 2.893292e-01 3.353934e-01 3.706782e-01 3.933063e-01 4.016102e-01 3.942882e-01 3.705902e-01 3.305155e-01 2.749871e-01 2.059605e-01 1.264217e-01 4.024264e-02 -4.810665e-02 -1.339543e-01 -2.128623e-01 -2.810163e-01 -3.355034e-01 -3.744450e-01 -3.969891e-01 -4.031951e-01 -4.131668e-01 -3.879859e-01 -3.497950e-01 -3.006038e-01 -2.424898e-01 -1.775245e-01 -1.077372e-01 -3.510737e-02 3.842272e-02 1.109237e-01 1.804509e-01 2.450210e-01 3.026000e-01 3.511127e-01 3.884812e-01 4.127020e-01 4.219676e-01 4.148330e-01 3.904210e-01 3.486430e-01 2.903997e-01 2.177133e-01 1.337383e-01 4.261373e-02 -5.085067e-02 -1.416174e-01 -2.249127e-01 -2.966619e-01 -3.537916e-01 -3.943637e-01 -4.175543e-01 -4.235144e-01 -4.287389e-01 -4.022162e-01 -3.623049e-01 -3.111153e-01 -2.508083e-01 -1.835207e-01 -1.113312e-01 -3.625647e-02 3.973136e-02 1.146755e-01 1.866014e-01 2.534875e-01 3.132494e-01 3.637453e-01 4.028127e-01 4.283458e-01 4.384215e-01 4.314755e-01 4.065221e-01 3.633950e-01 3.029702e-01 2.273179e-01 1.397266e-01 4.455586e-02 -5.309847e-02 -1.478891e-01 -2.347596e-01 -3.094209e-01 -3.686721e-01 -4.105335e-01 -4.342105e-01 -4.399348e-01 -4.396775e-01 -4.121976e-01 -3.710680e-01 -3.184705e-01 -2.566238e-01 -1.877099e-01 -1.138410e-01 -3.705885e-02 4.064491e-02 1.172955e-01 1.908984e-01 2.594067e-01 3.207016e-01 3.725953e-01 4.128661e-01 4.393361e-01 4.499998e-01 4.432073e-01 4.178934e-01 3.738336e-01 3.118823e-01 2.341395e-01 1.439858e-01 4.593829e-02 -5.469831e-02 -1.523495e-01 -2.417526e-01 -3.184656e-01 -3.792003e-01 -4.219518e-01 -4.459504e-01 -4.514882e-01 -4.453223e-01 -4.173435e-01 -3.755823e-01 -3.222569e-01 -2.596159e-01 -1.898644e-01 -1.151315e-01 -3.747136e-02 4.111449e-02 1.186425e-01 1.931083e-01 2.624522e-01 3.245380e-01 3.771544e-01 4.180495e-01 4.450079e-01 4.559815e-01 4.492752e-01 4.237822e-01 3.792465e-01 3.165100e-01 2.376864e-01 1.462026e-01 4.665820e-02 -5.553130e-02 -1.546708e-01 -2.453883e-01 -3.231617e-01 -3.846593e-01 -4.278645e-01 -4.520221e-01 -4.574565e-01 -4.453223e-01 -4.173435e-01 -3.755823e-01 -3.222569e-01 -2.596159e-01 -1.898644e-01 -1.151315e-01 -3.747136e-02 4.111449e-02 1.186425e-01 1.931083e-01 2.624522e-01 3.245380e-01 3.771544e-01 4.180495e-01 4.450079e-01 4.559815e-01 4.492752e-01 4.237822e-01 3.792465e-01 3.165100e-01 2.376864e-01 1.462026e-01 4.665820e-02 -5.553130e-02 -1.546708e-01 -2.453883e-01 -3.231617e-01 -3.846593e-01 -4.278645e-01 -4.520221e-01 -4.574565e-01 -4.396775e-01 -4.121976e-01 -3.710680e-01 -3.184705e-01 -2.566238e-01 -1.877099e-01 -1.138410e-01 -3.705885e-02 4.064491e-02 1.172955e-01 1.908984e-01 2.594067e-01 3.207016e-01 3.725953e-01 4.128661e-01 4.393361e-01 4.499998e-01 4.432073e-01 4.178934e-01 3.738336e-01 3.118823e-01 2.341395e-01 1.439858e-01 4.593829e-02 -5.469831e-02 -1.523495e-01 -2.417526e-01 -3.184656e-01 -3.792003e-01 -4.219518e-01 -4.459504e-01 -4.514882e-01 -4.287389e-01 -4.022162e-01 -3.623049e-01 -3.111153e-01 -2.508083e-01 -1.835207e-01 -1.113312e-01 -3.625647e-02 3.973136e-02 1.146755e-01 1.866014e-01 2.534875e-01 3.132494e-01 3.637453e-01 4.028127e-01 4.283458e-01 4.384215e-01 4.314755e-01 4.065221e-01 3.633950e-01 3.029702e-01 2.273179e-01 1.397266e-01 4.455586e-02 -5.309847e-02 -1.478891e-01 -2.347596e-01 -3.094209e-01 -3.686721e-01 -4.105335e-01 -4.342105e-01 -4.399348e-01 -4.131668e-01 -3.879859e-01 -3.497950e-01 -3.006038e-01 -2.424898e-01 -1.775245e-01 -1.077372e-01 -3.510737e-02 3.842272e-02 1.109237e-01 1.804509e-01 2.450210e-01 3.026000e-01 3.511127e-01 3.884812e-01 4.127020e-01 4.219676e-01 4.148330e-01 3.904210e-01 3.486430e-01 2.903997e-01 2.177133e-01 1.337383e-01 4.261373e-02 -5.085067e-02 -1.416174e-01 -2.249127e-01 -2.966619e-01 -3.537916e-01 -3.943637e-01 -4.175543e-01 -4.235144e-01 -3.938572e-01 -3.703064e-01 -3.342270e-01 -2.875040e-01 -2.321109e-01 -1.700366e-01 -1.032466e-01 -3.367135e-02 3.678677e-02 1.062353e-01 1.727702e-01 2.344578e-01 2.893292e-01 3.353934e-01 3.706782e-01 3.933063e-01 4.016102e-01 3.942882e-01 3.705902e-01 3.305155e-01 2.749871e-01 2.059605e-01 1.264217e-01 4.024264e-02 -4.810665e-02 -1.339543e-01 -2.128623e-01 -2.810163e-01 -3.355034e-01 -3.744450e-01 -3.969891e-01 -4.031951e-01 -3.718516e-01 -3.501140e-01 -3.164111e-01 -2.724874e-01 -2.201971e-01 -1.614324e-01 -9.808309e-02 -3.201984e-02 3.490459e-02 1.008441e-01 1.639445e-01 2.223331e-01 2.741181e-01 3.174066e-01 3.503478e-01 3.712062e-01 3.784704e-01 3.709945e-01 3.481639e-01 3.100670e-01 2.576416e-01 1.927604e-01 1.182162e-01 3.758532e-02 -4.503230e-02 -1.253605e-01 -1.993270e-01 -2.634064e-01 -3.148704e-01 -3.519154e-01 -3.736680e-01 -3.800946e-01 -3.482463e-01 -3.284016e-01 -2.972130e-01 -2.562759e-01 -2.073159e-01 -1.521190e-01 -9.248983e-02 -3.023048e-02 3.286441e-02 9.500345e-02 1.543912e-01 2.092245e-01 2.576980e-01 2.980268e-01 3.284905e-01 3.475040e-01 3.537177e-01 3.461445e-01 3.243040e-01 2.883679e-01 2.392788e-01 1.788136e-01 1.095589e-01 3.478327e-02 -4.179194e-02 -1.162939e-01 -1.850254e-01 -2.447615e-01 -2.929720e-01 -3.279410e-01 -3.487837e-01 -3.553789e-01 -3.241128e-01 -3.061483e-01 -2.774926e-01 -2.395914e-01 -1.940380e-01 -1.425073e-01 -8.671297e-02 -2.838198e-02 3.075582e-02 8.897049e-02 1.445319e-01 1.957128e-01 2.408005e-01 2.781227e-01 3.060924e-01 3.232760e-01 3.284835e-01 3.208809e-01 3.001134e-01 2.664250e-01 2.207527e-01 1.647694e-01 1.008526e-01 3.196676e-02 -3.853664e-02 -1.071771e-01 -1.706235e-01 -2.259488e-01 -2.708241e-01 -3.036297e-01 -3.234802e-01 -3.301774e-01 -3.004381e-01 -2.842643e-01 -2.580564e-01 -2.231157e-01 -1.809055e-01 -1.329896e-01 -8.098812e-02 -2.654970e-02 2.866477e-02 8.299120e-02 1.347689e-01 1.823500e-01 2.241161e-01 2.585079e-01 2.840696e-01 2.995129e-01 3.037988e-01 2.962342e-01 2.765763e-01 2.451284e-01 2.028120e-01 1.511933e-01 9.244676e-02 2.924856e-02 -3.539685e-02 -9.837592e-02 -1.567013e-01 -2.077288e-01 -2.493253e-01 -2.799709e-01 -2.987898e-01 -3.055198e-01 -2.780860e-01 -2.635541e-01 -2.396236e-01 -2.074616e-01 -1.684090e-01 -1.239223e-01 -7.553009e-02 -2.480245e-02 2.666985e-02 7.729001e-02 1.254679e-01 1.696348e-01 2.082653e-01 2.399082e-01 2.632314e-01 2.770813e-01 2.805555e-01 2.730862e-01 2.545258e-01 2.252236e-01 1.860782e-01 1.385513e-01 8.462809e-02 2.672115e-02 -3.247916e-02 -9.019050e-02 -1.437370e-01 -1.907330e-01 -2.292287e-01 -2.578028e-01 -2.755965e-01 -2.822978e-01 -2.577788e-01 -2.446978e-01 -2.228077e-01 -1.931563e-01 -1.569731e-01 -1.156156e-01 -7.052639e-02 -2.320030e-02 2.483986e-02 7.206289e-02 1.169470e-01 1.579993e-01 1.937814e-01 2.229420e-01 2.442613e-01 2.567052e-01 2.594909e-01 2.521571e-01 2.346346e-01 2.073061e-01 1.710431e-01 1.272093e-01 7.762048e-02 2.445663e-02 -2.986640e-02 -8.285506e-02 -1.321058e-01 -1.754612e-01 -2.111364e-01 -2.378024e-01 -2.546230e-01 -2.612490e-01 -2.400960e-01 -2.282467e-01 -2.081110e-01 -1.806346e-01 -1.469504e-01 -1.083284e-01 -6.613406e-02 -2.179366e-02 2.323257e-02 6.747404e-02 1.094718e-01 1.478021e-01 1.811044e-01 2.081155e-01 2.277129e-01 2.389649e-01 2.411885e-01 2.340100e-01 2.174222e-01 1.918305e-01 1.580780e-01 1.174416e-01 7.159073e-02 2.250861e-02 -2.761995e-02 -7.654390e-02 -1.220889e-01 -1.622913e-01 -1.955082e-01 -2.204933e-01 -2.364348e-01 -2.429576e-01 -2.254828e-01 -2.146291e-01 -1.959275e-01 -1.702406e-01 -1.386218e-01 -1.022681e-01 -6.247921e-02 -2.062300e-02 2.189452e-02 6.365540e-02 1.032551e-01 1.393289e-01 1.705822e-01 1.958255e-01 2.140163e-01 2.243059e-01 2.260913e-01 2.190671e-01 2.032730e-01 1.791288e-01 1.474514e-01 1.094443e-01 6.665744e-02 2.091517e-02 -2.578317e-02 -7.138085e-02 -1.138876e-01 -1.514963e-01 -1.826802e-01 -2.062630e-01 -2.214562e-01 -2.278675e-01 -2.142663e-01 -2.041631e-01 -1.865524e-01 -1.622342e-01 -1.322008e-01 -9.759270e-02 -5.965841e-02 -1.971938e-02 2.086142e-02 6.070801e-02 9.845906e-02 1.327966e-01 1.624775e-01 1.863693e-01 2.034905e-01 2.130553e-01 2.145203e-01 2.076304e-01 1.924583e-01 1.694327e-01 1.393480e-01 1.033510e-01 6.290088e-02 1.970202e-02 -2.438523e-02 -6.744962e-02 -1.076389e-01 -1.432641e-01 -1.728870e-01 -1.953854e-01 -2.099910e-01 -2.163010e-01 -2.066724e-01 -1.970706e-01 -1.801937e-01 -1.567997e-01 -1.278397e-01 -9.441562e-02 -5.774097e-02 -1.910509e-02 2.015898e-02 5.870444e-02 9.519999e-02 1.283599e-01 1.569764e-01 1.799557e-01 1.963578e-01 2.054388e-01 2.066948e-01 1.999035e-01 1.851588e-01 1.628941e-01 1.338877e-01 9.924777e-02 6.037222e-02 1.888551e-02 -2.344458e-02 -6.480353e-02 -1.034311e-01 -1.377169e-01 -1.662825e-01 -1.880430e-01 -2.022444e-01 -2.084779e-01 -2.028418e-01 -1.934909e-01 -1.769826e-01 -1.540540e-01 -1.256355e-01 -9.280940e-02 -5.677139e-02 -1.879444e-02 1.980372e-02 5.769129e-02 9.355232e-02 1.261175e-01 1.541972e-01 1.767171e-01 1.927580e-01 2.015970e-01 2.027500e-01 1.960108e-01 1.814836e-01 1.596037e-01 1.311413e-01 9.718469e-02 5.910115e-02 1.847511e-02 -2.297185e-02 -6.347348e-02 -1.013154e-01 -1.349267e-01 -1.629590e-01 -1.843461e-01 -1.983416e-01 -2.045342e-01 -2.066724e-01 -1.970706e-01 -1.801937e-01 -1.567997e-01 -1.278397e-01 -9.441562e-02 -5.774097e-02 -1.910509e-02 2.015898e-02 5.870444e-02 9.519999e-02 1.283599e-01 1.569764e-01 1.799557e-01 1.963578e-01 2.054388e-01 2.066948e-01 1.999035e-01 1.851588e-01 1.628941e-01 1.338877e-01 9.924777e-02 6.037222e-02 1.888551e-02 -2.344458e-02 -6.480353e-02 -1.034311e-01 -1.377169e-01 -1.662825e-01 -1.880430e-01 -2.022444e-01 -2.084779e-01 -2.107079e-01 -2.008351e-01 -1.835650e-01 -1.596782e-01 -1.301477e-01 -9.609589e-02 -5.875459e-02 -1.942974e-02 2.053026e-02 5.976365e-02 9.692370e-02 1.307080e-01 1.598902e-01 1.833563e-01 2.001439e-01 2.094865e-01 2.108588e-01 2.040201e-01 1.890522e-01 1.663854e-01 1.368059e-01 1.014423e-01 6.172533e-02 1.932257e-02 -2.394801e-02 -6.621939e-02 -1.056815e-01 -1.406814e-01 -1.698088e-01 -1.919591e-01 -2.063713e-01 -2.126404e-01 -2.187149e-01 -2.082996e-01 -1.902457e-01 -1.653792e-01 -1.347168e-01 -9.942121e-02 -6.076016e-02 -2.007205e-02 2.126475e-02 6.185937e-02 1.003350e-01 1.353566e-01 1.656615e-01 1.900950e-01 2.076512e-01 2.175181e-01 2.191268e-01 2.121998e-01 1.967939e-01 1.733319e-01 1.426154e-01 1.058131e-01 6.442103e-02 2.019337e-02 -2.495120e-02 -6.904020e-02 -1.101635e-01 -1.465830e-01 -1.768248e-01 -1.997456e-01 -2.145711e-01 -2.209050e-01 -2.305582e-01 -2.193282e-01 -2.001065e-01 -1.737866e-01 -1.414503e-01 -1.043190e-01 -6.371303e-02 -2.101764e-02 2.234584e-02 6.494484e-02 1.053594e-01 1.422072e-01 1.741729e-01 2.000422e-01 2.187440e-01 2.293986e-01 2.313712e-01 2.243276e-01 2.082854e-01 1.836541e-01 1.512558e-01 1.123185e-01 6.843521e-02 2.149029e-02 -2.644568e-02 -7.324091e-02 -1.168345e-01 -1.553602e-01 -1.872494e-01 -2.113028e-01 -2.267279e-01 -2.331435e-01 -2.460176e-01 -2.337026e-01 -2.129410e-01 -1.847166e-01 -1.501954e-01 -1.106751e-01 -6.754328e-02 -2.224400e-02 2.374757e-02 6.894686e-02 1.118798e-01 1.511048e-01 1.852385e-01 2.129902e-01 2.332033e-01 2.449082e-01 2.473815e-01 2.402113e-01 2.233594e-01 1.972139e-01 1.626209e-01 1.208839e-01 7.372417e-02 2.319946e-02 -2.841589e-02 -7.877607e-02 -1.256179e-01 -1.669046e-01 -2.009430e-01 -2.264617e-01 -2.426478e-01 -2.491444e-01 -2.647697e-01 -2.511055e-01 -2.284530e-01 -1.979068e-01 -1.607359e-01 -1.183291e-01 -7.215276e-02 -2.371957e-02 2.543361e-02 7.376271e-02 1.197317e-01 1.618296e-01 1.985936e-01 2.286407e-01 2.507111e-01 2.637235e-01 2.668435e-01 2.595589e-01 2.417574e-01 2.137946e-01 1.765404e-01 1.313878e-01 8.021580e-02 2.529788e-02 -3.083587e-02 -8.557051e-02 -1.363892e-01 -1.810429e-01 -2.176856e-01 -2.449611e-01 -2.620369e-01 -2.685923e-01 -2.863662e-01 -2.711033e-01 -2.462418e-01 -2.130064e-01 -1.727847e-01 -1.270687e-01 -7.741224e-02 -2.540283e-02 2.735623e-02 7.925719e-02 1.286971e-01 1.740896e-01 2.138831e-01 2.465905e-01 2.708321e-01 2.853962e-01 2.893147e-01 2.819525e-01 2.631027e-01 2.330743e-01 1.927570e-01 1.436442e-01 8.779844e-02 2.774982e-02 -3.366502e-02 -9.350774e-02 -1.489575e-01 -1.975133e-01 -2.371514e-01 -2.664210e-01 -2.844752e-01 -2.910437e-01 -3.102143e-01 -2.931299e-01 -2.657904e-01 -2.295669e-01 -1.859778e-01 -1.366264e-01 -8.315943e-02 -2.724171e-02 2.945572e-02 8.526061e-02 1.385019e-01 1.875147e-01 2.306536e-01 2.663186e-01 2.929980e-01 3.093325e-01 3.142004e-01 3.068214e-01 2.868723e-01 2.545984e-01 2.109020e-01 1.573828e-01 9.630838e-02 3.050276e-02 -3.684334e-02 -1.024167e-01 -1.630456e-01 -2.159409e-01 -2.588804e-01 -2.903144e-01 -3.093893e-01 -3.159030e-01 -3.355621e-01 -3.164770e-01 -2.864593e-01 -2.470388e-01 -1.998725e-01 -1.466790e-01 -8.919893e-02 -2.917360e-02 3.166036e-02 9.156870e-02 1.488142e-01 2.016545e-01 2.483489e-01 2.871803e-01 3.164967e-01 3.347790e-01 3.407350e-01 3.334193e-01 3.123713e-01 2.777542e-01 2.304715e-01 1.722297e-01 1.055177e-01 3.348337e-02 -4.028668e-02 -1.120591e-01 -1.782702e-01 -2.358133e-01 -2.822533e-01 -3.159416e-01 -3.360302e-01 -3.424041e-01 -3.614964e-01 -3.402947e-01 -3.074899e-01 -2.647766e-01 -2.139526e-01 -1.568517e-01 -9.530501e-02 -3.112623e-02 3.388762e-02 9.794566e-02 1.592496e-01 2.159839e-01 2.663154e-01 3.084101e-01 3.404734e-01 3.608195e-01 3.679747e-01 3.608131e-01 3.387184e-01 3.017537e-01 2.508094e-01 1.876939e-01 1.151245e-01 3.659444e-02 -4.388297e-02 -1.221190e-01 -1.941274e-01 -2.564639e-01 -3.064739e-01 -3.424161e-01 -3.634626e-01 -3.696037e-01 -3.869581e-01 -3.636091e-01 -3.280217e-01 -2.820545e-01 -2.276425e-01 -1.667286e-01 -1.012282e-01 -3.301985e-02 3.604654e-02 1.041310e-01 1.693817e-01 2.299170e-01 2.838179e-01 3.291395e-01 3.639476e-01 3.863905e-01 3.948096e-01 3.878903e-01 3.648488e-01 3.256323e-01 2.711038e-01 2.031621e-01 1.247502e-01 3.971373e-02 -4.749082e-02 -1.321997e-01 -2.099882e-01 -2.770680e-01 -3.305687e-01 -3.686676e-01 -3.905723e-01 -3.963934e-01 -4.107805e-01 -3.853596e-01 -3.471271e-01 -2.980969e-01 -2.403310e-01 -1.758709e-01 -1.067061e-01 -3.477062e-02 3.804167e-02 1.098506e-01 1.787600e-01 2.428316e-01 3.000707e-01 3.484315e-01 3.858509e-01 4.103200e-01 4.200014e-01 4.133943e-01 3.895438e-01 3.482734e-01 2.904045e-01 2.179107e-01 1.339453e-01 4.269604e-02 -5.094176e-02 -1.418301e-01 -2.251105e-01 -2.966610e-01 -3.534109e-01 -3.934723e-01 -4.161015e-01 -4.215375e-01 -4.317547e-01 -4.044581e-01 -3.638635e-01 -3.121219e-01 -2.514058e-01 -1.838407e-01 -1.114777e-01 -3.629530e-02 3.977844e-02 1.148324e-01 1.869357e-01 2.541044e-01 3.142809e-01 3.653336e-01 4.050868e-01 4.313923e-01 4.422510e-01 4.359907e-01 4.114946e-01 3.684634e-01 3.076689e-01 2.311394e-01 1.422102e-01 4.537953e-02 -5.404760e-02 -1.504863e-01 -2.386733e-01 -3.141845e-01 -3.737769e-01 -4.155165e-01 -4.387158e-01 -4.437408e-01 -4.487183e-01 -4.198688e-01 -3.773406e-01 -3.233963e-01 -2.602963e-01 -1.902321e-01 -1.153017e-01 -3.751693e-02 4.116951e-02 1.188245e-01 1.934920e-01 2.631542e-01 3.257051e-01 3.789456e-01 4.206103e-01 4.484378e-01 4.602959e-01 4.543683e-01 4.294000e-01 3.849827e-01 3.218375e-01 2.420275e-01 1.490287e-01 4.759634e-02 -5.661304e-02 -1.576270e-01 -2.498351e-01 -3.285640e-01 -3.904377e-01 -4.334950e-01 -4.571047e-01 -4.617450e-01 -4.606612e-01 -4.306986e-01 -3.867967e-01 -3.312964e-01 -2.665194e-01 -1.947023e-01 -1.179749e-01 -3.837078e-02 4.214153e-02 1.216151e-01 1.980776e-01 2.694890e-01 3.337106e-01 3.884972e-01 4.315206e-01 4.604398e-01 4.730279e-01 4.673646e-01 4.420936e-01 3.967249e-01 3.319376e-01 2.498117e-01 1.539153e-01 4.918719e-02 -5.845330e-02 -1.627435e-01 -2.578139e-01 -3.388129e-01 -4.022788e-01 -4.462387e-01 -4.701073e-01 -4.744466e-01 -4.668331e-01 -4.362887e-01 -3.916728e-01 -3.353668e-01 -2.697236e-01 -1.970028e-01 -1.193502e-01 -3.881001e-02 4.264147e-02 1.230506e-01 2.004375e-01 2.727507e-01 3.378355e-01 3.934229e-01 4.371527e-01 4.666428e-01 4.796170e-01 4.741007e-01 4.486841e-01 4.028332e-01 3.372031e-01 2.538792e-01 1.564729e-01 5.002064e-02 -5.941697e-02 -1.654211e-01 -2.619826e-01 -3.441554e-01 -4.084379e-01 -4.528545e-01 -4.768460e-01 -4.810194e-01 -4.668331e-01 -4.362887e-01 -3.916728e-01 -3.353668e-01 -2.697236e-01 -1.970028e-01 -1.193502e-01 -3.881001e-02 4.264147e-02 1.230506e-01 2.004375e-01 2.727507e-01 3.378355e-01 3.934229e-01 4.371527e-01 4.666428e-01 4.796170e-01 4.741007e-01 4.486841e-01 4.028332e-01 3.372031e-01 2.538792e-01 1.564729e-01 5.002064e-02 -5.941697e-02 -1.654211e-01 -2.619826e-01 -3.441554e-01 -4.084379e-01 -4.528545e-01 -4.768460e-01 -4.810194e-01 -4.606612e-01 -4.306986e-01 -3.867967e-01 -3.312964e-01 -2.665194e-01 -1.947023e-01 -1.179749e-01 -3.837078e-02 4.214153e-02 1.216151e-01 1.980776e-01 2.694890e-01 3.337106e-01 3.884972e-01 4.315206e-01 4.604398e-01 4.730279e-01 4.673646e-01 4.420936e-01 3.967249e-01 3.319376e-01 2.498117e-01 1.539153e-01 4.918719e-02 -5.845330e-02 -1.627435e-01 -2.578139e-01 -3.388129e-01 -4.022788e-01 -4.462387e-01 -4.701073e-01 -4.744466e-01 -4.487183e-01 -4.198688e-01 -3.773406e-01 -3.233963e-01 -2.602963e-01 -1.902321e-01 -1.153017e-01 -3.751693e-02 4.116951e-02 1.188245e-01 1.934920e-01 2.631542e-01 3.257051e-01 3.789456e-01 4.206103e-01 4.484378e-01 4.602959e-01 4.543683e-01 4.294000e-01 3.849827e-01 3.218375e-01 2.420275e-01 1.490287e-01 4.759634e-02 -5.661304e-02 -1.576270e-01 -2.498351e-01 -3.285640e-01 -3.904377e-01 -4.334950e-01 -4.571047e-01 -4.617450e-01 -4.317547e-01 -4.044581e-01 -3.638635e-01 -3.121219e-01 -2.514058e-01 -1.838407e-01 -1.114777e-01 -3.629530e-02 3.977844e-02 1.148324e-01 1.869357e-01 2.541044e-01 3.142809e-01 3.653336e-01 4.050868e-01 4.313923e-01 4.422510e-01 4.359907e-01 4.114946e-01 3.684634e-01 3.076689e-01 2.311394e-01 1.422102e-01 4.537953e-02 -5.404760e-02 -1.504863e-01 -2.386733e-01 -3.141845e-01 -3.737769e-01 -4.155165e-01 -4.387158e-01 -4.437408e-01 -4.107805e-01 -3.853596e-01 -3.471271e-01 -2.980969e-01 -2.403310e-01 -1.758709e-01 -1.067061e-01 -3.477062e-02 3.804167e-02 1.098506e-01 1.787600e-01 2.428316e-01 3.000707e-01 3.484315e-01 3.858509e-01 4.103200e-01 4.200014e-01 4.133943e-01 3.895438e-01 3.482734e-01 2.904045e-01 2.179107e-01 1.339453e-01 4.269604e-02 -5.094176e-02 -1.418301e-01 -2.251105e-01 -2.966610e-01 -3.534109e-01 -3.934723e-01 -4.161015e-01 -4.215375e-01 -3.869581e-01 -3.636091e-01 -3.280217e-01 -2.820545e-01 -2.276425e-01 -1.667286e-01 -1.012282e-01 -3.301985e-02 3.604654e-02 1.041310e-01 1.693817e-01 2.299170e-01 2.838179e-01 3.291395e-01 3.639476e-01 3.863905e-01 3.948096e-01 3.878903e-01 3.648488e-01 3.256323e-01 2.711038e-01 2.031621e-01 1.247502e-01 3.971373e-02 -4.749082e-02 -1.321997e-01 -2.099882e-01 -2.770680e-01 -3.305687e-01 -3.686676e-01 -3.905723e-01 -3.963934e-01 -3.614964e-01 -3.402947e-01 -3.074899e-01 -2.647766e-01 -2.139526e-01 -1.568517e-01 -9.530501e-02 -3.112623e-02 3.388762e-02 9.794566e-02 1.592496e-01 2.159839e-01 2.663154e-01 3.084101e-01 3.404734e-01 3.608195e-01 3.679747e-01 3.608131e-01 3.387184e-01 3.017537e-01 2.508094e-01 1.876939e-01 1.151245e-01 3.659444e-02 -4.388297e-02 -1.221190e-01 -1.941274e-01 -2.564639e-01 -3.064739e-01 -3.424161e-01 -3.634626e-01 -3.696037e-01 -3.355621e-01 -3.164770e-01 -2.864593e-01 -2.470388e-01 -1.998725e-01 -1.466790e-01 -8.919893e-02 -2.917360e-02 3.166036e-02 9.156870e-02 1.488142e-01 2.016545e-01 2.483489e-01 2.871803e-01 3.164967e-01 3.347790e-01 3.407350e-01 3.334193e-01 3.123713e-01 2.777542e-01 2.304715e-01 1.722297e-01 1.055177e-01 3.348337e-02 -4.028668e-02 -1.120591e-01 -1.782702e-01 -2.358133e-01 -2.822533e-01 -3.159416e-01 -3.360302e-01 -3.424041e-01 -3.102143e-01 -2.931299e-01 -2.657904e-01 -2.295669e-01 -1.859778e-01 -1.366264e-01 -8.315943e-02 -2.724171e-02 2.945572e-02 8.526061e-02 1.385019e-01 1.875147e-01 2.306536e-01 2.663186e-01 2.929980e-01 3.093325e-01 3.142004e-01 3.068214e-01 2.868723e-01 2.545984e-01 2.109020e-01 1.573828e-01 9.630838e-02 3.050276e-02 -3.684334e-02 -1.024167e-01 -1.630456e-01 -2.159409e-01 -2.588804e-01 -2.903144e-01 -3.093893e-01 -3.159030e-01 -2.863662e-01 -2.711033e-01 -2.462418e-01 -2.130064e-01 -1.727847e-01 -1.270687e-01 -7.741224e-02 -2.540283e-02 2.735623e-02 7.925719e-02 1.286971e-01 1.740896e-01 2.138831e-01 2.465905e-01 2.708321e-01 2.853962e-01 2.893147e-01 2.819525e-01 2.631027e-01 2.330743e-01 1.927570e-01 1.436442e-01 8.779844e-02 2.774982e-02 -3.366502e-02 -9.350774e-02 -1.489575e-01 -1.975133e-01 -2.371514e-01 -2.664210e-01 -2.844752e-01 -2.910437e-01 -2.647697e-01 -2.511055e-01 -2.284530e-01 -1.979068e-01 -1.607359e-01 -1.183291e-01 -7.215276e-02 -2.371957e-02 2.543361e-02 7.376271e-02 1.197317e-01 1.618296e-01 1.985936e-01 2.286407e-01 2.507111e-01 2.637235e-01 2.668435e-01 2.595589e-01 2.417574e-01 2.137946e-01 1.765404e-01 1.313878e-01 8.021580e-02 2.529788e-02 -3.083587e-02 -8.557051e-02 -1.363892e-01 -1.810429e-01 -2.176856e-01 -2.449611e-01 -2.620369e-01 -2.685923e-01 -2.460176e-01 -2.337026e-01 -2.129410e-01 -1.847166e-01 -1.501954e-01 -1.106751e-01 -6.754328e-02 -2.224400e-02 2.374757e-02 6.894686e-02 1.118798e-01 1.511048e-01 1.852385e-01 2.129902e-01 2.332033e-01 2.449082e-01 2.473815e-01 2.402113e-01 2.233594e-01 1.972139e-01 1.626209e-01 1.208839e-01 7.372417e-02 2.319946e-02 -2.841589e-02 -7.877607e-02 -1.256179e-01 -1.669046e-01 -2.009430e-01 -2.264617e-01 -2.426478e-01 -2.491444e-01 -2.305582e-01 -2.193282e-01 -2.001065e-01 -1.737866e-01 -1.414503e-01 -1.043190e-01 -6.371303e-02 -2.101764e-02 2.234584e-02 6.494484e-02 1.053594e-01 1.422072e-01 1.741729e-01 2.000422e-01 2.187440e-01 2.293986e-01 2.313712e-01 2.243276e-01 2.082854e-01 1.836541e-01 1.512558e-01 1.123185e-01 6.843521e-02 2.149029e-02 -2.644568e-02 -7.324091e-02 -1.168345e-01 -1.553602e-01 -1.872494e-01 -2.113028e-01 -2.267279e-01 -2.331435e-01 -2.187149e-01 -2.082996e-01 -1.902457e-01 -1.653792e-01 -1.347168e-01 -9.942121e-02 -6.076016e-02 -2.007205e-02 2.126475e-02 6.185937e-02 1.003350e-01 1.353566e-01 1.656615e-01 1.900950e-01 2.076512e-01 2.175181e-01 2.191268e-01 2.121998e-01 1.967939e-01 1.733319e-01 1.426154e-01 1.058131e-01 6.442103e-02 2.019337e-02 -2.495120e-02 -6.904020e-02 -1.101635e-01 -1.465830e-01 -1.768248e-01 -1.997456e-01 -2.145711e-01 -2.209050e-01 -2.107079e-01 -2.008351e-01 -1.835650e-01 -1.596782e-01 -1.301477e-01 -9.609589e-02 -5.875459e-02 -1.942974e-02 2.053026e-02 5.976365e-02 9.692370e-02 1.307080e-01 1.598902e-01 1.833563e-01 2.001439e-01 2.094865e-01 2.108588e-01 2.040201e-01 1.890522e-01 1.663854e-01 1.368059e-01 1.014423e-01 6.172533e-02 1.932257e-02 -2.394801e-02 -6.621939e-02 -1.056815e-01 -1.406814e-01 -1.698088e-01 -1.919591e-01 -2.063713e-01 -2.126404e-01 -2.066724e-01 -1.970706e-01 -1.801937e-01 -1.567997e-01 -1.278397e-01 -9.441562e-02 -5.774097e-02 -1.910509e-02 2.015898e-02 5.870444e-02 9.519999e-02 1.283599e-01 1.569764e-01 1.799557e-01 1.963578e-01 2.054388e-01 2.066948e-01 1.999035e-01 1.851588e-01 1.628941e-01 1.338877e-01 9.924777e-02 6.037222e-02 1.888551e-02 -2.344458e-02 -6.480353e-02 -1.034311e-01 -1.377169e-01 -1.662825e-01 -1.880430e-01 -2.022444e-01 -2.084779e-01 -2.142663e-01 -2.041631e-01 -1.865524e-01 -1.622342e-01 -1.322008e-01 -9.759270e-02 -5.965841e-02 -1.971938e-02 2.086142e-02 6.070801e-02 9.845906e-02 1.327966e-01 1.624775e-01 1.863693e-01 2.034905e-01 2.130553e-01 2.145203e-01 2.076304e-01 1.924583e-01 1.694327e-01 1.393480e-01 1.033510e-01 6.290088e-02 1.970202e-02 -2.438523e-02 -6.744962e-02 -1.076389e-01 -1.432641e-01 -1.728870e-01 -1.953854e-01 -2.099910e-01 -2.163010e-01 -2.187149e-01 -2.082996e-01 -1.902457e-01 -1.653792e-01 -1.347168e-01 -9.942121e-02 -6.076016e-02 -2.007205e-02 2.126475e-02 6.185937e-02 1.003350e-01 1.353566e-01 1.656615e-01 1.900950e-01 2.076512e-01 2.175181e-01 2.191268e-01 2.121998e-01 1.967939e-01 1.733319e-01 1.426154e-01 1.058131e-01 6.442103e-02 2.019337e-02 -2.495120e-02 -6.904020e-02 -1.101635e-01 -1.465830e-01 -1.768248e-01 -1.997456e-01 -2.145711e-01 -2.209050e-01 -2.275554e-01 -2.165130e-01 -1.975735e-01 -1.716150e-01 -1.397030e-01 -1.030434e-01 -6.294210e-02 -2.077042e-02 2.206335e-02 6.413950e-02 1.040512e-01 1.404299e-01 1.719750e-01 1.974878e-01 2.159132e-01 2.263873e-01 2.282895e-01 2.212967e-01 2.054329e-01 1.811077e-01 1.491358e-01 1.107291e-01 6.745743e-02 2.117494e-02 -2.608203e-02 -7.221739e-02 -1.152042e-01 -1.532061e-01 -1.846772e-01 -2.084333e-01 -2.236888e-01 -2.300624e-01 -2.406652e-01 -2.286763e-01 -2.084121e-01 -1.808286e-01 -1.470636e-01 -1.083870e-01 -6.615953e-02 -2.180005e-02 2.324053e-02 6.750157e-02 1.095334e-01 1.479195e-01 1.813038e-01 2.084230e-01 2.281495e-01 2.395407e-01 2.418979e-01 2.348274e-01 2.183010e-01 1.927055e-01 1.588724e-01 1.180768e-01 7.199864e-02 2.264331e-02 -2.777413e-02 -7.696945e-02 -1.227383e-01 -1.630956e-01 -1.963885e-01 -2.213728e-01 -2.372494e-01 -2.436617e-01 -2.578387e-01 -2.445800e-01 -2.225595e-01 -1.928371e-01 -1.566455e-01 -1.153368e-01 -7.034151e-02 -2.313809e-02 2.476990e-02 7.187130e-02 1.166634e-01 1.576698e-01 1.934633e-01 2.226979e-01 2.441502e-01 2.567734e-01 2.597624e-01 2.526261e-01 2.352619e-01 2.080206e-01 1.717507e-01 1.278079e-01 7.801824e-02 2.459031e-02 -3.001864e-02 -8.326904e-02 -1.327163e-01 -1.761755e-01 -2.118522e-01 -2.384262e-01 -2.550852e-01 