<VTKFile type="PolyData">
<PolyData>
<Piece NumberOfPoints="26" NumberOfVerts="0" NumberOfLines="0" NumberOfStrips="0" NumberOfPolys="0">
<Points>
<DataArray type="Float32" NumberOfComponents="3" format="ascii">
-1.917945 0.000000 0.000000 0.882055 1.200000 0.000000 -0.317945 0.000000 0.000000 0.882055 -1.200000 0.000000 0.882055 0.000000 1.200000 0.882055 0.000000 -1.200000 1.730583 0.848528 0.000000 0.033527 0.848528 0.000000 0.033527 -0.848528 0.000000 1.730583 -0.848528 0.000000 1.730583 0.000000 0.848528 0.882055 0.848528 0.848528 0.033527 0.000000 0.848528 0.882055 -0.848528 0.848528 1.730583 0.000000 -0.848528 0.882055 0.848528 -0.848528 0.033527 0.000000 -0.848528 0.882055 -0.848528 -0.848528 1.574876 0.692820 0.692820 0.189235 0.692820 0.692820 0.189235 -0.692820 0.692820 1.574876 -0.692820 0.692820 1.574876 0.692820 -0.692820 0.189235 0.692820 -0.692820 0.189235 -0.692820 -0.692820 1.574876 -0.692820 -0.692820 
</DataArray>
</Points>
<PointData Scalars="n status">
<DataArray type="Int32" Name="n" format="ascii">
0 0 0 0 0 0 0 0 0 0 0 0 0 0 0 0 0 0 0 0 0 0 0 0 0 0 
</DataArray>
<DataArray type="Int32" Name="status" format="ascii">
-1 -1 -1 -1 -1 -1 -1 -1 -1 -1 -1 -1 -1 -1 -1 -1 -1 -1 -1 -1 -1 -1 -1 -1 -1 -1 
</DataArray>
</PointData>
</Piece>
</PolyData>
</VTKFile>
