<VTKFile type="RectilinearGrid">
<RectilinearGrid WholeExtent="0 32 0 32 0 32" GhostLevel="0">
<Piece Extent="0 32 0 32 0 32">
<CellData Scalars="p phase" Vectors="vel">
<DataArray type="Float32" Name="p">
-2.558845e-01 -2.328880e-01 -2.019847e-01 -1.643932e-01 -1.215047e-01 -7.483817e-02 -2.600111e-02 2.334683e-02 7.152791e-02 1.168809e-01 1.577978e-01 1.927658e-01 2.204140e-01 2.395673e-01 2.493048e-01 2.490203e-01 2.384792e-01 2.178666e-01 1.878164e-01 1.494154e-01 1.041760e-01 5.397457e-02 9.577504e-04 -5.257644e-02 -1.043111e-01 -1.520433e-01 -1.938040e-01 -2.279537e-01 -2.532482e-01 -2.688712e-01 -2.744384e-01 -2.699762e-01 -2.604292e-01 -2.369200e-01 -2.053901e-01 -1.670852e-01 -1.234207e-01 -7.593723e-02 -2.626168e-02 2.392837e-02 7.293765e-02 1.190866e-01 1.607475e-01 1.963848e-01 2.246028e-01 2.441992e-01 2.542255e-01 2.540488e-01 2.434131e-01 2.224893e-01 1.919088e-01 1.527705e-01 1.066143e-01 5.535928e-02 1.207557e-03 -5.347949e-02 -1.063197e-01 -1.550494e-01 -1.976489e-01 -2.324422e-01 -2.581643e-01 -2.739940e-01 -2.795548e-01 -2.748917e-01 -2.694300e-01 -2.449012e-01 -2.121285e-01 -1.724105e-01 -1.272106e-01 -7.811196e-02 -2.677915e-02 2.507534e-02 7.572216e-02 1.234462e-01 1.665804e-01 2.035454e-01 2.328959e-01 2.533758e-01 2.639809e-01 2.640254e-01 2.532087e-01 2.316732e-01 2.000444e-01 1.594439e-01 1.114661e-01 5.811558e-02 1.705305e-03 -5.527622e-02 -1.103159e-01 -1.610283e-01 -2.052927e-01 -2.413603e-01 -2.679259e-01 -2.841589e-01 -2.897004e-01 -2.846326e-01 -2.827029e-01 -2.566609e-01 -2.220505e-01 -1.802485e-01 -1.327882e-01 -8.131425e-02 -2.754565e-02 2.675521e-02 7.981024e-02 1.298532e-01 1.751605e-01 2.140883e-01 2.451187e-01 2.669156e-01 2.783913e-01 2.787799e-01 2.677126e-01 2.452866e-01 2.121162e-01 1.693549e-01 1.186771e-01 6.221467e-02 2.447289e-03 -5.794525e-02 -1.162526e-01 -1.699064e-01 -2.166344e-01 -2.545808e-01 -2.823817e-01 -2.991954e-01 -3.046917e-01 -2.990106e-01 -2.999560e-01 -2.719297e-01 -2.349218e-01 -1.904104e-01 -1.400185e-01 -8.546867e-02 -2.854813e-02 2.891850e-02 8.509234e-02 1.381431e-01 1.862757e-01 2.277640e-01 2.609956e-01 2.845297e-01 2.971678e-01 2.980360e-01 2.866722e-01 2.631097e-01 2.279435e-01 1.823653e-01 1.281532e-01 6.760688e-02 3.427859e-03 -6.144815e-02 -1.240469e-01 -1.815557e-01 -2.315019e-01 -2.718894e-01 -3.012809e-01 -3.188244e-01 -3.242321e-01 -3.177248e-01 -3.207728e-01 -2.903268e-01 -2.504133e-01 -2.026323e-01 -1.487131e-01 -9.046933e-02 -2.976689e-02 3.149836e-02 9.141817e-02 1.480886e-01 1.996310e-01 2.442220e-01 2.801360e-01 3.058043e-01 3.198916e-01 3.213878e-01 3.097113e-01 2.848102e-01 2.472490e-01 1.982606e-01 1.397469e-01 7.421407e-02 4.639092e-03 -6.572250e-02 -1.335663e-01 -1.957750e-01 -2.496283e-01 -2.929600e-01 -3.242475e-01 -3.426334e-01 -3.478894e-01 -3.403413e-01 -3.445960e-01 -3.113469e-01 -2.680911e-01 -2.165677e-01 -1.586249e-01 -9.617662e-02 -3.117406e-02 3.441064e-02 9.859483e-02 1.593950e-01 2.148412e-01 2.630011e-01 3.020205e-01 3.301828e-01 3.459914e-01 3.482738e-01 3.363013e-01 3.099138e-01 2.696306e-01 2.167252e-01 1.532393e-01 8.191962e-02 6.069678e-03 -7.067383e-02 -1.446124e-01 -2.122666e-01 -2.706246e-01 -3.173242e-01 -3.507503e-01 -3.700489e-01 -3.750709e-01 -3.662729e-01 -3.707132e-01 -3.343499e-01 -2.874097e-01 -2.317829e-01 -1.694451e-01 -1.024151e-01 -3.273194e-02 3.755470e-02 1.063868e-01 1.716995e-01 2.314271e-01 2.835218e-01 3.259892e-01 3.569492e-01 3.747233e-01 3.779515e-01 3.657325e-01 3.377739e-01 2.945326e-01 2.373170e-01 1.683196e-01 9.055659e-02 7.702691e-03 -7.616825e-02 -1.569050e-01 -2.306137e-01 -2.939524e-01 -3.443427e-01 -3.800749e-01 -4.003105e-01 -4.050017e-01 -3.947612e-01 -3.982531e-01 -3.585599e-01 -3.077120e-01 -2.477579e-01 -1.808037e-01 -1.089732e-01 -3.439193e-02 4.081561e-02 1.145187e-01 1.845729e-01 2.488174e-01 3.050862e-01 3.512390e-01 3.852214e-01 4.051576e-01 4.094806e-01 3.970930e-01 3.675471e-01 3.212192e-01 2.594431e-01 1.845664e-01 9.989529e-02 9.511560e-03 -8.202754e-02 -1.700690e-01 -2.502611e-01 -3.189018e-01 -3.731828e-01 -4.113027e-01 -4.324537e-01 -4.367114e-01 -4.248685e-01 -4.261935e-01 -3.830745e-01 -3.282388e-01 -2.638943e-01 -1.922751e-01 -1.156063e-01 -3.609414e-02 4.406760e-02 1.226815e-01 1.975290e-01 2.663584e-01 3.268881e-01 3.768318e-01 4.139569e-01 4.361821e-01 4.417200e-01 4.292603e-01 3.981812e-01 3.487598e-01 2.823436e-01 2.014324e-01 1.096322e-01 1.145434e-02 -8.802931e-02 -1.836296e-01 -2.705077e-01 -3.445824e-01 -4.028105e-01 -4.433064e-01 -4.653094e-01 -4.690379e-01 -4.554836e-01 -4.533893e-01 -4.068902e-01 -3.481512e-01 -2.795332e-01 -2.033912e-01 -1.220434e-01 -3.776847e-02 4.717908e-02 1.305434e-01 2.100400e-01 2.833344e-01 3.480366e-01 4.017203e-01 4.419786e-01 4.665251e-01 4.733486e-01 4.609180e-01 4.284249e-01 3.760338e-01 3.050916e-01 2.182410e-01 1.193844e-01 1.346696e-02 -9.391401e-02 -1.970204e-01 -2.905154e-01 -3.699352e-01 -4.320061e-01 -4.747695e-01 -4.975266e-01 -5.006532e-01 -4.853503e-01 -4.786205e-01 -4.289457e-01 -3.665663e-01 -2.939838e-01 -2.136614e-01 -1.279990e-01 -3.933723e-02 5.001879e-02 1.377646e-01 2.215601e-01 2.989988e-01 3.675941e-01 4.247918e-01 4.680226e-01 4.948061e-01 5.029153e-01 4.906020e-01 4.568703e-01 4.017643e-01 3.266181e-01 2.342009e-01 1.286937e-01 1.545788e-02 -9.939961e-02 -2.096059e-01 -3.093405e-01 -3.937712e-01 -4.594090e-01 -5.042361e-01 -5.276260e-01 -5.301169e-01 -5.131185e-01 -5.006615e-01 -4.481814e-01 -3.826072e-01 -3.065616e-01 -2.225997e-01 -1.331889e-01 -4.071971e-02 5.246277e-02 1.440161e-01 2.315557e-01 3.126161e-01 3.846293e-01 4.449313e-01 4.908107e-01 5.196148e-01 5.289217e-01 5.167844e-01 4.820311e-01 4.245884e-01 3.457687e-01 2.484461e-01 1.370470e-01 1.730741e-02 -1.042027e-01 -2.207224e-01 -3.259902e-01 -4.148413e-01 -4.835971e-01 -5.301954e-01 -5.540850e-01 -5.559594e-01 -5.374222e-01 -5.183671e-01 -4.636128e-01 -3.954624e-01 -3.166350e-01 -2.297577e-01 -1.373496e-01 -4.183839e-02 5.440146e-02 1.489999e-01 2.395395e-01 3.235102e-01 3.982805e-01 4.610994e-01 5.091417e-01 5.396140e-01 5.499343e-01 5.379893e-01 5.024579e-01 4.431637e-01 3.613941e-01 2.601032e-01 1.439159e-01 1.887566e-02 -1.080628e-01 -2.297315e-01 -3.395020e-01 -4.319344e-01 -5.031969e-01 -5.511965e-01 -5.754514e-01 -5.767892e-01 -5.569768e-01 -5.307667e-01 -4.744086e-01 -4.044489e-01 -3.236735e-01 -2.347589e-01 -1.402589e-01 -4.262611e-02 5.574618e-02 1.524701e-01 2.451067e-01 3.311158e-01 4.078229e-01 4.724169e-01 5.219925e-01 5.536573e-01 5.647147e-01 5.529319e-01 5.168790e-01 4.563026e-01 3.724684e-01 2.683843e-01 1.488141e-01 2.002096e-02 -1.107645e-01 -2.360812e-01 -3.490363e-01 -4.439934e-01 -5.170127e-01 -5.659825e-01 -5.904740e-01 -5.914138e-01 -5.706876e-01 -5.371529e-01 -4.799654e-01 -4.090721e-01 -3.272935e-01 -2.373310e-01 -1.417559e-01 -4.303320e-02 5.643462e-02 1.542510e-01 2.479663e-01 3.350254e-01 4.127320e-01 4.782441e-01 5.286155e-01 5.609022e-01 5.723481e-01 5.606579e-01 5.243440e-01 4.631120e-01 3.782151e-01 2.726878e-01 1.513659e-01 2.062658e-02 -1.121550e-01 -2.393642e-01 -3.539698e-01 -4.502326e-01 -5.241572e-01 -5.736230e-01 -5.982302e-01 -5.989580e-01 -5.777546e-01 -5.371529e-01 -4.799654e-01 -4.090721e-01 -3.272935e-01 -2.373310e-01 -1.417559e-01 -4.303320e-02 5.643462e-02 1.542510e-01 2.479663e-01 3.350254e-01 4.127320e-01 4.782441e-01 5.286155e-01 5.609022e-01 5.723481e-01 5.606579e-01 5.243440e-01 4.631120e-01 3.782151e-01 2.726878e-01 1.513659e-01 2.062658e-02 -1.121550e-01 -2.393642e-01 -3.539698e-01 -4.502326e-01 -5.241572e-01 -5.736230e-01 -5.982302e-01 -5.989580e-01 -5.777546e-01 -5.307666e-01 -4.744086e-01 -4.044489e-01 -3.236735e-01 -2.347589e-01 -1.402589e-01 -4.262611e-02 5.574618e-02 1.524701e-01 2.451067e-01 3.311158e-01 4.078229e-01 4.724169e-01 5.219925e-01 5.536573e-01 5.647147e-01 5.529319e-01 5.168790e-01 4.563026e-01 3.724684e-01 2.683843e-01 1.488141e-01 2.002096e-02 -1.107645e-01 -2.360812e-01 -3.490363e-01 -4.439934e-01 -5.170127e-01 -5.659825e-01 -5.904740e-01 -5.914138e-01 -5.706876e-01 -5.183671e-01 -4.636128e-01 -3.954624e-01 -3.166350e-01 -2.297577e-01 -1.373496e-01 -4.183839e-02 5.440146e-02 1.489999e-01 2.395395e-01 3.235102e-01 3.982805e-01 4.610994e-01 5.091417e-01 5.396140e-01 5.499343e-01 5.379893e-01 5.024579e-01 4.431637e-01 3.613941e-01 2.601032e-01 1.439159e-01 1.887566e-02 -1.080628e-01 -2.297315e-01 -3.395020e-01 -4.319344e-01 -5.031969e-01 -5.511966e-01 -5.754514e-01 -5.767892e-01 -5.569768e-01 -5.006615e-01 -4.481814e-01 -3.826072e-01 -3.065616e-01 -2.225997e-01 -1.331889e-01 -4.071970e-02 5.246277e-02 1.440161e-01 2.315557e-01 3.126161e-01 3.846293e-01 4.449313e-01 4.908107e-01 5.196148e-01 5.289217e-01 5.167844e-01 4.820311e-01 4.245884e-01 3.457687e-01 2.484461e-01 1.370470e-01 1.730741e-02 -1.042027e-01 -2.207224e-01 -3.259902e-01 -4.148413e-01 -4.835971e-01 -5.301954e-01 -5.540850e-01 -5.559594e-01 -5.374222e-01 -4.786205e-01 -4.289457e-01 -3.665663e-01 -2.939838e-01 -2.136614e-01 -1.279990e-01 -3.933723e-02 5.001879e-02 1.377646e-01 2.215601e-01 2.989988e-01 3.675941e-01 4.247918e-01 4.680226e-01 4.948061e-01 5.029153e-01 4.906020e-01 4.568703e-01 4.017643e-01 3.266181e-01 2.342009e-01 1.286937e-01 1.545788e-02 -9.939961e-02 -2.096059e-01 -3.093405e-01 -3.937712e-01 -4.594090e-01 -5.042361e-01 -5.276260e-01 -5.301169e-01 -5.131185e-01 -4.533893e-01 -4.068902e-01 -3.481512e-01 -2.795332e-01 -2.033912e-01 -1.220434e-01 -3.776847e-02 4.717908e-02 1.305434e-01 2.100400e-01 2.833344e-01 3.480366e-01 4.017203e-01 4.419786e-01 4.665251e-01 4.733486e-01 4.609180e-01 4.284249e-01 3.760338e-01 3.050916e-01 2.182410e-01 1.193844e-01 1.346697e-02 -9.391401e-02 -1.970204e-01 -2.905154e-01 -3.699352e-01 -4.320061e-01 -4.747695e-01 -4.975266e-01 -5.006532e-01 -4.853503e-01 -4.261935e-01 -3.830745e-01 -3.282388e-01 -2.638943e-01 -1.922751e-01 -1.156063e-01 -3.609414e-02 4.406760e-02 1.226815e-01 1.975290e-01 2.663584e-01 3.268881e-01 3.768318e-01 4.139569e-01 4.361821e-01 4.417200e-01 4.292603e-01 3.981812e-01 3.487598e-01 2.823436e-01 2.014324e-01 1.096322e-01 1.145434e-02 -8.802931e-02 -1.836296e-01 -2.705077e-01 -3.445824e-01 -4.028105e-01 -4.433064e-01 -4.653094e-01 -4.690379e-01 -4.554836e-01 -3.982531e-01 -3.585599e-01 -3.077120e-01 -2.477579e-01 -1.808037e-01 -1.089732e-01 -3.439192e-02 4.081561e-02 1.145187e-01 1.845729e-01 2.488174e-01 3.050862e-01 3.512390e-01 3.852214e-01 4.051576e-01 4.094806e-01 3.970930e-01 3.675471e-01 3.212192e-01 2.594431e-01 1.845664e-01 9.989528e-02 9.511561e-03 -8.202754e-02 -1.700690e-01 -2.502611e-01 -3.189018e-01 -3.731828e-01 -4.113027e-01 -4.324537e-01 -4.367114e-01 -4.248685e-01 -3.707132e-01 -3.343499e-01 -2.874097e-01 -2.317829e-01 -1.694451e-01 -1.024151e-01 -3.273194e-02 3.755470e-02 1.063868e-01 1.716995e-01 2.314271e-01 2.835218e-01 3.259892e-01 3.569492e-01 3.747233e-01 3.779515e-01 3.657325e-01 3.377739e-01 2.945326e-01 2.373170e-01 1.683196e-01 9.055659e-02 7.702690e-03 -7.616824e-02 -1.569050e-01 -2.306137e-01 -2.939524e-01 -3.443427e-01 -3.800749e-01 -4.003105e-01 -4.050017e-01 -3.947612e-01 -3.445960e-01 -3.113469e-01 -2.680911e-01 -2.165677e-01 -1.586249e-01 -9.617663e-02 -3.117405e-02 3.441064e-02 9.859484e-02 1.593950e-01 2.148412e-01 2.630011e-01 3.020205e-01 3.301828e-01 3.459914e-01 3.482738e-01 3.363013e-01 3.099138e-01 2.696306e-01 2.167252e-01 1.532393e-01 8.191962e-02 6.069680e-03 -7.067383e-02 -1.446124e-01 -2.122667e-01 -2.706246e-01 -3.173242e-01 -3.507503e-01 -3.700489e-01 -3.750709e-01 -3.662729e-01 -3.207728e-01 -2.903268e-01 -2.504133e-01 -2.026323e-01 -1.487131e-01 -9.046932e-02 -2.976690e-02 3.149837e-02 9.141817e-02 1.480886e-01 1.996310e-01 2.442220e-01 2.801360e-01 3.058043e-01 3.198916e-01 3.213878e-01 3.097113e-01 2.848102e-01 2.472490e-01 1.982606e-01 1.397469e-01 7.421407e-02 4.639091e-03 -6.572250e-02 -1.335663e-01 -1.957750e-01 -2.496283e-01 -2.929600e-01 -3.242475e-01 -3.426334e-01 -3.478894e-01 -3.403413e-01 -2.999560e-01 -2.719297e-01 -2.349218e-01 -1.904104e-01 -1.400185e-01 -8.546867e-02 -2.854813e-02 2.891850e-02 8.509235e-02 1.381431e-01 1.862757e-01 2.277640e-01 2.609956e-01 2.845297e-01 2.971678e-01 2.980360e-01 2.866722e-01 2.631097e-01 2.279435e-01 1.823653e-01 1.281532e-01 6.760688e-02 3.427861e-03 -6.144815e-02 -1.240469e-01 -1.815557e-01 -2.315019e-01 -2.718894e-01 -3.012809e-01 -3.188244e-01 -3.242321e-01 -3.177248e-01 -2.827029e-01 -2.566609e-01 -2.220505e-01 -1.802485e-01 -1.327882e-01 -8.131425e-02 -2.754565e-02 2.675521e-02 7.981024e-02 1.298532e-01 1.751605e-01 2.140883e-01 2.451187e-01 2.669156e-01 2.783913e-01 2.787799e-01 2.677126e-01 2.452866e-01 2.121162e-01 1.693549e-01 1.186771e-01 6.221467e-02 2.447287e-03 -5.794525e-02 -1.162526e-01 -1.699064e-01 -2.166344e-01 -2.545808e-01 -2.823817e-01 -2.991954e-01 -3.046917e-01 -2.990106e-01 -2.694300e-01 -2.449012e-01 -2.121285e-01 -1.724105e-01 -1.272106e-01 -7.811196e-02 -2.677914e-02 2.507534e-02 7.572216e-02 1.234462e-01 1.665804e-01 2.035454e-01 2.328959e-01 2.533758e-01 2.639809e-01 2.640254e-01 2.532087e-01 2.316732e-01 2.000444e-01 1.594439e-01 1.114661e-01 5.811558e-02 1.705307e-03 -5.527622e-02 -1.103159e-01 -1.610283e-01 -2.052927e-01 -2.413603e-01 -2.679259e-01 -2.841589e-01 -2.897004e-01 -2.846326e-01 -2.604292e-01 -2.369200e-01 -2.053901e-01 -1.670852e-01 -1.234207e-01 -7.593723e-02 -2.626168e-02 2.392837e-02 7.293765e-02 1.190867e-01 1.607475e-01 1.963848e-01 2.246028e-01 2.441992e-01 2.542255e-01 2.540488e-01 2.434131e-01 2.224893e-01 1.919088e-01 1.527705e-01 1.066143e-01 5.535928e-02 1.207556e-03 -5.347949e-02 -1.063197e-01 -1.550494e-01 -1.976489e-01 -2.324422e-01 -2.581643e-01 -2.739940e-01 -2.795548e-01 -2.748917e-01 -2.558845e-01 -2.328880e-01 -2.019847e-01 -1.643932e-01 -1.215047e-01 -7.483818e-02 -2.600111e-02 2.334682e-02 7.152791e-02 1.168809e-01 1.577978e-01 1.927658e-01 2.204140e-01 2.395673e-01 2.493048e-01 2.490203e-01 2.384792e-01 2.178666e-01 1.878164e-01 1.494154e-01 1.041760e-01 5.397457e-02 9.577519e-04 -5.257644e-02 -1.043111e-01 -1.520433e-01 -1.938040e-01 -2.279537e-01 -2.532482e-01 -2.688712e-01 -2.744384e-01 -2.699762e-01 -2.604292e-01 -2.369200e-01 -2.053901e-01 -1.670852e-01 -1.234207e-01 -7.593723e-02 -2.626168e-02 2.392837e-02 7.293765e-02 1.190866e-01 1.607475e-01 1.963848e-01 2.246028e-01 2.441992e-01 2.542255e-01 2.540488e-01 2.434131e-01 2.224893e-01 1.919088e-01 1.527705e-01 1.066143e-01 5.535928e-02 1.207557e-03 -5.347949e-02 -1.063197e-01 -1.550494e-01 -1.976489e-01 -2.324422e-01 -2.581643e-01 -2.739940e-01 -2.795548e-01 -2.748917e-01 -2.652115e-01 -2.411545e-01 -2.089605e-01 -1.699034e-01 -1.254241e-01 -7.708537e-02 -2.653355e-02 2.453596e-02 7.441053e-02 1.213925e-01 1.638337e-01 2.001759e-01 2.289972e-01 2.490667e-01 2.594058e-01 2.593529e-01 2.486273e-01 2.273836e-01 1.962491e-01 1.563339e-01 1.092063e-01 5.683131e-02 1.470576e-03 -5.444561e-02 -1.084639e-01 -1.582546e-01 -2.017428e-01 -2.372137e-01 -2.633808e-01 -2.794187e-01 -2.849614e-01 -2.800749e-01 -2.746904e-01 -2.495427e-01 -2.160296e-01 -1.754816e-01 -1.293891e-01 -7.935839e-02 -2.707376e-02 2.573482e-02 7.732107e-02 1.259519e-01 1.699398e-01 2.076813e-01 2.377030e-01 2.587169e-01 2.696843e-01 2.698855e-01 2.589897e-01 2.371179e-01 2.048877e-01 1.634304e-01 1.143711e-01 5.976550e-02 1.995275e-03 -5.637090e-02 -1.127366e-01 -1.646389e-01 -2.098932e-01 -2.467068e-01 -2.737516e-01 -2.901950e-01 -2.956932e-01 -2.903555e-01 -2.886868e-01 -2.619164e-01 -2.264495e-01 -1.836993e-01 -1.352292e-01 -8.270812e-02 -2.787467e-02 2.749188e-02 8.159732e-02 1.326579e-01 1.789294e-01 2.187423e-01 2.505474e-01 2.729720e-01 2.848873e-01 2.854852e-01 2.743580e-01 2.515732e-01 2.177310e-01 1.739922e-01 1.220644e-01 6.413932e-02 2.779082e-03 -5.923837e-02 -1.191001e-01 -1.741422e-01 -2.220151e-01 -2.608107e-01 -2.891409e-01 -3.061656e-01 -3.115772e-01 -3.055529e-01 -3.069131e-01 -2.780081e-01 -2.399859e-01 -1.943672e-01 -1.428088e-01 -8.705868e-02 -2.892344e-02 2.975665e-02 8.712804e-02 1.413440e-01 1.905885e-01 2.331081e-01 2.672555e-01 2.915463e-01 3.047321e-01 3.058854e-01 2.944928e-01 2.705458e-01 2.346158e-01 1.878979e-01 1.322063e-01 6.991190e-02 3.818381e-03 -6.301508e-02 -1.274839e-01 -1.866544e-01 -2.379571e-01 -2.793326e-01 -3.093174e-01 -3.270674e-01 -3.323290e-01 -3.253738e-01 -3.289541e-01 -2.974354e-01 -2.563066e-01 -2.072180e-01 -1.519366e-01 -9.230264e-02 -3.020045e-02 3.246054e-02 9.375965e-02 1.517782e-01 2.046171e-01 2.504240e-01 2.874333e-01 3.140252e-01 3.288025e-01 3.306871e-01 3.190291e-01 2.937184e-01 2.552824e-01 2.049508e-01 1.446646e-01 7.701548e-02 5.108352e-03 -6.764358e-02 -1.377682e-01 -2.019926e-01 -2.574735e-01 -3.019673e-01 -3.339237e-01 -3.525025e-01 -3.575258e-01 -3.493895e-01 -3.542454e-01 -3.196844e-01 -2.749690e-01 -2.218974e-01 -1.623598e-01 -9.829724e-02 -3.167753e-02 3.551667e-02 1.012937e-01 1.636581e-01 2.206204e-01 2.702178e-01 3.105511e-01 3.398432e-01 3.565216e-01 3.593272e-01 3.474417e-01 3.206250e-01 2.793412e-01 2.248499e-01 1.592342e-01 8.534367e-02 6.642199e-03 -7.303189e-02 -1.497636e-01 -2.198729e-01 -2.801910e-01 -3.282610e-01 -3.624396e-01 -3.819032e-01 -3.865757e-01 -3.770090e-01 -3.820554e-01 -3.440961e-01 -2.954106e-01 -2.379579e-01 -1.737596e-01 -1.048614e-01 -3.331614e-02 3.882053e-02 1.094863e-01 1.766080e-01 2.381027e-01 2.918909e-01 3.359282e-01 3.682633e-01 3.871257e-01 3.910468e-01 3.790093e-01 3.506131e-01 3.062359e-01 2.471574e-01 1.756115e-01 9.473709e-02 8.408682e-03 -7.904344e-02 -1.631902e-01 -2.398801e-01 -3.055725e-01 -3.575729e-01 -3.941447e-01 -4.144984e-01 -4.186885e-01 -4.074559e-01 -4.114755e-01 -3.698614e-01 -3.169462e-01 -2.548575e-01 -1.857505e-01 -1.117751e-01 -3.506597e-02 4.225197e-02 1.180498e-01 1.901801e-01 2.564679e-01 3.147150e-01 3.627263e-01 3.983652e-01 4.196458e-01 4.248670e-01 4.127847e-01 3.828098e-01 3.352086e-01 2.712661e-01 1.933689e-01 1.049668e-01 1.038744e-02 -8.548966e-02 -1.776587e-01 -2.614413e-01 -3.328853e-01 -3.890425e-01 -4.280875e-01 -4.492867e-01 -4.528549e-01 -4.397530e-01 -4.414249e-01 -3.960276e-01 -3.387759e-01 -2.719665e-01 -1.978855e-01 -1.187815e-01 -3.686442e-02 4.567877e-02 1.266598e-01 2.038634e-01 2.750281e-01 3.378409e-01 3.899560e-01 4.290476e-01 4.529052e-01 4.595797e-01 4.475789e-01 4.161004e-01 3.652749e-01 2.963743e-01 2.119317e-01 1.157179e-01 1.254124e-02 -9.212803e-02 -1.926605e-01 -2.838085e-01 -3.611819e-01 -4.215703e-01 -4.630704e-01 -4.850268e-01 -4.878423e-01 -4.727237e-01 -4.706758e-01 -4.215227e-01 -3.600062e-01 -2.885854e-01 -2.096688e-01 -1.255941e-01 -3.863744e-02 4.896181e-02 1.349653e-01 2.170992e-01 2.930246e-01 3.603217e-01 4.165012e-01 4.590524e-01 4.855404e-01 4.937636e-01 4.819712e-01 4.491315e-01 3.952199e-01 3.214766e-01 2.305668e-01 1.265778e-01 1.480624e-02 -9.866871e-02 -2.075704e-01 -3.060616e-01 -3.893029e-01 -4.538250e-01 -4.976605e-01 -5.202536e-01 -5.222157e-01 -5.050156e-01 -4.979030e-01 -4.452004e-01 -3.796884e-01 -3.039746e-01 -2.205764e-01 -1.319088e-01 -4.030229e-02 5.196167e-02 1.426050e-01 2.293063e-01 3.096603e-01 3.811533e-01 4.411656e-01 4.870145e-01 5.160529e-01 5.258352e-01 5.143555e-01 4.803499e-01 4.236286e-01 3.453833e-01 2.483911e-01 1.370352e-01 1.708261e-02 -1.047910e-01 -2.216705e-01 -3.271371e-01 -4.159131e-01 -4.842850e-01 -5.302381e-01 -5.533305e-01 -5.543916e-01 -5.351538e-01 -5.217595e-01 -4.659044e-01 -3.968712e-01 -3.173956e-01 -2.300862e-01 -1.374209e-01 -4.177239e-02 5.454614e-02 1.492273e-01 2.399129e-01 3.241449e-01 3.993311e-01 4.627404e-01 5.115403e-01 5.428950e-01 5.541383e-01 5.430300e-01 5.080877e-01 4.489596e-01 3.667792e-01 2.644113e-01 1.464980e-01 1.923053e-02 -1.101687e-01 -2.341943e-01 -3.458899e-01 -4.395767e-01 -5.113245e-01 -5.590877e-01 -5.825420e-01 -5.827278e-01 -5.616245e-01 -5.409730e-01 -4.825503e-01 -4.106676e-01 -3.281620e-01 -2.377132e-01 -1.418460e-01 -4.296399e-02 5.659796e-02 1.545123e-01 2.483949e-01 3.357482e-01 4.139199e-01 4.800911e-01 5.313093e-01 5.645852e-01 5.770708e-01 5.663298e-01 5.306934e-01 4.696680e-01 3.843282e-01 2.776017e-01 1.543379e-01 2.107729e-02 -1.145000e-01 -2.443913e-01 -3.611870e-01 -4.588727e-01 -5.333419e-01 -5.825314e-01 -6.062254e-01 -6.056473e-01 -5.829869e-01 -5.544551e-01 -4.942155e-01 -4.203261e-01 -3.356943e-01 -2.430481e-01 -1.449435e-01 -4.380415e-02 5.802202e-02 1.581951e-01 2.543146e-01 3.438570e-01 4.241294e-01 4.922524e-01 5.451897e-01 5.798435e-01 5.932361e-01 5.827899e-01 5.467000e-01 4.843663e-01 3.968163e-01 2.870168e-01 1.599616e-01 2.244017e-02 -1.175362e-01 -2.516036e-01 -3.720236e-01 -4.725396e-01 -5.489200e-01 -5.990938e-01 -6.229280e-01 -6.217824e-01 -5.980000e-01 -5.614077e-01 -5.002261e-01 -4.252996e-01 -3.395713e-01 -2.457937e-01 -1.465385e-01 -4.423869e-02 5.875134e-02 1.600860e-01 2.573569e-01 3.480278e-01 4.293853e-01 4.985192e-01 5.523502e-01 5.877242e-01 6.015961e-01 5.913140e-01 5.550010e-01 4.920005e-01 4.033131e-01 2.919243e-01 1.629019e-01 2.316528e-02 -1.191003e-01 -2.553408e-01 -3.776446e-01 -4.796281e-01 -5.569948e-01 -6.076708e-01 -6.315684e-01 -6.301199e-01 -6.057495e-01 -5.614077e-01 -5.002261e-01 -4.252996e-01 -3.395713e-01 -2.457937e-01 -1.465385e-01 -4.423869e-02 5.875134e-02 1.600860e-01 2.573569e-01 3.480278e-01 4.293853e-01 4.985193e-01 5.523502e-01 5.877242e-01 6.015961e-01 5.913140e-01 5.550010e-01 4.920005e-01 4.033131e-01 2.919243e-01 1.629019e-01 2.316528e-02 -1.191003e-01 -2.553408e-01 -3.776446e-01 -4.796281e-01 -5.569948e-01 -6.076708e-01 -6.315684e-01 -6.301199e-01 -6.057495e-01 -5.544551e-01 -4.942155e-01 -4.203261e-01 -3.356943e-01 -2.430481e-01 -1.449435e-01 -4.380415e-02 5.802202e-02 1.581951e-01 2.543146e-01 3.438570e-01 4.241294e-01 4.922524e-01 5.451897e-01 5.798435e-01 5.932361e-01 5.827899e-01 5.467000e-01 4.843663e-01 3.968163e-01 2.870168e-01 1.599616e-01 2.244017e-02 -1.175362e-01 -2.516036e-01 -3.720236e-01 -4.725396e-01 -5.489200e-01 -5.990938e-01 -6.229280e-01 -6.217824e-01 -5.980000e-01 -5.409730e-01 -4.825503e-01 -4.106676e-01 -3.281620e-01 -2.377132e-01 -1.418460e-01 -4.296399e-02 5.659796e-02 1.545123e-01 2.483949e-01 3.357482e-01 4.139199e-01 4.800911e-01 5.313093e-01 5.645852e-01 5.770708e-01 5.663298e-01 5.306934e-01 4.696680e-01 3.843282e-01 2.776017e-01 1.543379e-01 2.107730e-02 -1.145000e-01 -2.443913e-01 -3.611870e-01 -4.588727e-01 -5.333419e-01 -5.825314e-01 -6.062254e-01 -6.056473e-01 -5.829869e-01 -5.217595e-01 -4.659044e-01 -3.968712e-01 -3.173956e-01 -2.300862e-01 -1.374209e-01 -4.177240e-02 5.454614e-02 1.492273e-01 2.399129e-01 3.241449e-01 3.993311e-01 4.627404e-01 5.115403e-01 5.428950e-01 5.541383e-01 5.430300e-01 5.080877e-01 4.489596e-01 3.667792e-01 2.644113e-01 1.464980e-01 1.923053e-02 -1.101687e-01 -2.341943e-01 -3.458899e-01 -4.395767e-01 -5.113245e-01 -5.590877e-01 -5.825420e-01 -5.827278e-01 -5.616245e-01 -4.979030e-01 -4.452004e-01 -3.796884e-01 -3.039746e-01 -2.205764e-01 -1.319088e-01 -4.030229e-02 5.196167e-02 1.426050e-01 2.293063e-01 3.096603e-01 3.811533e-01 4.411656e-01 4.870145e-01 5.160529e-01 5.258352e-01 5.143555e-01 4.803499e-01 4.236286e-01 3.453833e-01 2.483911e-01 1.370352e-01 1.708261e-02 -1.047910e-01 -2.216705e-01 -3.271371e-01 -4.159131e-01 -4.842850e-01 -5.302381e-01 -5.533305e-01 -5.543916e-01 -5.351538e-01 -4.706758e-01 -4.215227e-01 -3.600062e-01 -2.885854e-01 -2.096688e-01 -1.255941e-01 -3.863744e-02 4.896181e-02 1.349653e-01 2.170992e-01 2.930246e-01 3.603217e-01 4.165012e-01 4.590524e-01 4.855404e-01 4.937636e-01 4.819712e-01 4.491315e-01 3.952199e-01 3.214766e-01 2.305668e-01 1.265778e-01 1.480624e-02 -9.866871e-02 -2.075704e-01 -3.060616e-01 -3.893029e-01 -4.538250e-01 -4.976605e-01 -5.202536e-01 -5.222157e-01 -5.050156e-01 -4.414249e-01 -3.960276e-01 -3.387759e-01 -2.719665e-01 -1.978855e-01 -1.187815e-01 -3.686442e-02 4.567877e-02 1.266598e-01 2.038634e-01 2.750281e-01 3.378408e-01 3.899560e-01 4.290476e-01 4.529052e-01 4.595797e-01 4.475789e-01 4.161004e-01 3.652749e-01 2.963743e-01 2.119317e-01 1.157179e-01 1.254124e-02 -9.212803e-02 -1.926605e-01 -2.838085e-01 -3.611819e-01 -4.215703e-01 -4.630704e-01 -4.850268e-01 -4.878423e-01 -4.727237e-01 -4.114755e-01 -3.698614e-01 -3.169462e-01 -2.548575e-01 -1.857505e-01 -1.117751e-01 -3.506597e-02 4.225197e-02 1.180498e-01 1.901801e-01 2.564679e-01 3.147150e-01 3.627263e-01 3.983652e-01 4.196458e-01 4.248670e-01 4.127847e-01 3.828098e-01 3.352086e-01 2.712661e-01 1.933689e-01 1.049668e-01 1.038744e-02 -8.548966e-02 -1.776587e-01 -2.614413e-01 -3.328853e-01 -3.890425e-01 -4.280875e-01 -4.492867e-01 -4.528549e-01 -4.397530e-01 -3.820554e-01 -3.440961e-01 -2.954106e-01 -2.379579e-01 -1.737596e-01 -1.048614e-01 -3.331614e-02 3.882052e-02 1.094863e-01 1.766080e-01 2.381027e-01 2.918909e-01 3.359282e-01 3.682633e-01 3.871257e-01 3.910468e-01 3.790093e-01 3.506131e-01 3.062359e-01 2.471574e-01 1.756115e-01 9.473709e-02 8.408684e-03 -7.904344e-02 -1.631902e-01 -2.398801e-01 -3.055725e-01 -3.575729e-01 -3.941447e-01 -4.144984e-01 -4.186885e-01 -4.074559e-01 -3.542454e-01 -3.196844e-01 -2.749690e-01 -2.218974e-01 -1.623598e-01 -9.829724e-02 -3.167753e-02 3.551667e-02 1.012937e-01 1.636581e-01 2.206204e-01 2.702178e-01 3.105511e-01 3.398432e-01 3.565216e-01 3.593272e-01 3.474417e-01 3.206250e-01 2.793412e-01 2.248499e-01 1.592342e-01 8.534367e-02 6.642198e-03 -7.303189e-02 -1.497636e-01 -2.198728e-01 -2.801910e-01 -3.282610e-01 -3.624396e-01 -3.819032e-01 -3.865757e-01 -3.770090e-01 -3.289541e-01 -2.974354e-01 -2.563066e-01 -2.072180e-01 -1.519366e-01 -9.230264e-02 -3.020045e-02 3.246054e-02 9.375965e-02 1.517782e-01 2.046171e-01 2.504240e-01 2.874333e-01 3.140252e-01 3.288025e-01 3.306871e-01 3.190291e-01 2.937184e-01 2.552824e-01 2.049508e-01 1.446646e-01 7.701547e-02 5.108354e-03 -6.764358e-02 -1.377682e-01 -2.019926e-01 -2.574735e-01 -3.019673e-01 -3.339237e-01 -3.525025e-01 -3.575258e-01 -3.493895e-01 -3.069131e-01 -2.780081e-01 -2.399859e-01 -1.943672e-01 -1.428088e-01 -8.705868e-02 -2.892344e-02 2.975665e-02 8.712804e-02 1.413440e-01 1.905885e-01 2.331081e-01 2.672555e-01 2.915463e-01 3.047321e-01 3.058854e-01 2.944928e-01 2.705458e-01 2.346158e-01 1.878979e-01 1.322063e-01 6.991190e-02 3.818379e-03 -6.301508e-02 -1.274839e-01 -1.866544e-01 -2.379571e-01 -2.793326e-01 -3.093174e-01 -3.270674e-01 -3.323290e-01 -3.253738e-01 -2.886868e-01 -2.619164e-01 -2.264495e-01 -1.836993e-01 -1.352292e-01 -8.270812e-02 -2.787467e-02 2.749188e-02 8.159732e-02 1.326579e-01 1.789294e-01 2.187423e-01 2.505474e-01 2.729720e-01 2.848873e-01 2.854852e-01 2.743580e-01 2.515732e-01 2.177310e-01 1.739922e-01 1.220644e-01 6.413932e-02 2.779083e-03 -5.923837e-02 -1.191001e-01 -1.741422e-01 -2.220151e-01 -2.608107e-01 -2.891409e-01 -3.061656e-01 -3.115772e-01 -3.055529e-01 -2.746904e-01 -2.495427e-01 -2.160296e-01 -1.754816e-01 -1.293891e-01 -7.935838e-02 -2.707376e-02 2.573482e-02 7.732107e-02 1.259519e-01 1.699398e-01 2.076813e-01 2.377030e-01 2.587169e-01 2.696843e-01 2.698855e-01 2.589897e-01 2.371179e-01 2.048877e-01 1.634304e-01 1.143711e-01 5.976550e-02 1.995274e-03 -5.637090e-02 -1.127366e-01 -1.646389e-01 -2.098932e-01 -2.467068e-01 -2.737516e-01 -2.901950e-01 -2.956932e-01 -2.903555e-01 -2.652115e-01 -2.411545e-01 -2.089605e-01 -1.699034e-01 -1.254241e-01 -7.708537e-02 -2.653355e-02 2.453596e-02 7.441054e-02 1.213925e-01 1.638337e-01 2.001759e-01 2.289972e-01 2.490667e-01 2.594058e-01 2.593529e-01 2.486273e-01 2.273836e-01 1.962491e-01 1.563339e-01 1.092063e-01 5.683131e-02 1.470577e-03 -5.444561e-02 -1.084639e-01 -1.582546e-01 -2.017428e-01 -2.372137e-01 -2.633808e-01 -2.794187e-01 -2.849614e-01 -2.800749e-01 -2.604292e-01 -2.369200e-01 -2.053901e-01 -1.670852e-01 -1.234207e-01 -7.593723e-02 -2.626168e-02 2.392837e-02 7.293765e-02 1.190867e-01 1.607475e-01 1.963848e-01 2.246028e-01 2.441992e-01 2.542255e-01 2.540488e-01 2.434131e-01 2.224893e-01 1.919088e-01 1.527705e-01 1.066143e-01 5.535928e-02 1.207556e-03 -5.347949e-02 -1.063197e-01 -1.550494e-01 -1.976489e-01 -2.324422e-01 -2.581643e-01 -2.739940e-01 -2.795548e-01 -2.748917e-01 -2.694300e-01 -2.449012e-01 -2.121285e-01 -1.724105e-01 -1.272106e-01 -7.811196e-02 -2.677915e-02 2.507534e-02 7.572216e-02 1.234462e-01 1.665804e-01 2.035454e-01 2.328959e-01 2.533758e-01 2.639809e-01 2.640254e-01 2.532087e-01 2.316732e-01 2.000444e-01 1.594439e-01 1.114661e-01 5.811558e-02 1.705305e-03 -5.527622e-02 -1.103159e-01 -1.610283e-01 -2.052927e-01 -2.413603e-01 -2.679259e-01 -2.841589e-01 -2.897004e-01 -2.846326e-01 -2.746904e-01 -2.495427e-01 -2.160296e-01 -1.754816e-01 -1.293891e-01 -7.935839e-02 -2.707376e-02 2.573482e-02 7.732107e-02 1.259519e-01 1.699398e-01 2.076813e-01 2.377030e-01 2.587169e-01 2.696843e-01 2.698855e-01 2.589897e-01 2.371179e-01 2.048877e-01 1.634304e-01 1.143711e-01 5.976550e-02 1.995275e-03 -5.637090e-02 -1.127366e-01 -1.646389e-01 -2.098932e-01 -2.467068e-01 -2.737516e-01 -2.901950e-01 -2.956932e-01 -2.903555e-01 -2.851323e-01 -2.587490e-01 -2.237627e-01 -1.815665e-01 -1.337046e-01 -8.182824e-02 -2.765977e-02 2.703704e-02 8.048324e-02 1.309110e-01 1.765928e-01 2.158781e-01 2.472376e-01 2.693199e-01 2.810173e-01 2.815414e-01 2.704998e-01 2.479688e-01 2.145484e-01 1.713885e-01 1.201739e-01 6.306282e-02 2.575084e-03 -5.855867e-02 -1.175736e-01 -1.718502e-01 -2.190760e-01 -2.573699e-01 -2.853598e-01 -3.022107e-01 -3.076108e-01 -3.017255e-01 -3.005879e-01 -2.723586e-01 -2.351829e-01 -1.905463e-01 -1.400711e-01 -8.547357e-02 -2.853006e-02 2.894792e-02 8.513542e-02 1.382152e-01 1.864027e-01 2.279786e-01 2.613318e-01 2.850162e-01 2.978208e-01 2.988517e-01 2.876217e-01 2.641360e-01 2.289640e-01 1.832790e-01 1.288538e-01 6.799939e-02 3.444954e-03 -6.183245e-02 -1.248110e-01 -1.826330e-01 -2.327923e-01 -2.732763e-01 -3.026497e-01 -3.200786e-01 -3.253040e-01 -3.185791e-01 -3.207812e-01 -2.901095e-01 -2.500574e-01 -2.022307e-01 -1.483517e-01 -9.021779e-02 -2.967237e-02 3.141498e-02 9.116319e-02 1.476944e-01 1.991527e-01 2.437313e-01 2.797134e-01 3.055285e-01 3.198273e-01 3.215733e-01 3.101474e-01 2.854534e-01 2.480117e-01 1.990201e-01 1.403634e-01 7.455502e-02 4.606153e-03 -6.617163e-02 -1.344068e-01 -1.969181e-01 -2.509387e-01 -2.942823e-01 -3.254354e-01 -3.435737e-01 -3.485170e-01 