<VTKFile type="RectilinearGrid">
<RectilinearGrid WholeExtent="0 32 0 32 0 32" GhostLevel="0">
<Piece Extent="0 32 0 32 0 32">
<CellData Scalars="p phase" Vectors="vel">
<DataArray type="Float32" Name="p">
-2.579657e-01 -2.415987e-01 -2.162334e-01 -1.829443e-01 -1.430332e-01 -9.797746e-02 -4.938266e-02 1.061160e-03 5.161946e-02 1.005515e-01 1.461487e-01 1.867757e-01 2.209151e-01 2.472174e-01 2.645560e-01 2.720853e-01 2.692984e-01 2.560790e-01 2.327414e-01 2.000503e-01 1.592149e-01 1.118526e-01 5.992005e-02 5.616548e-03 -4.873435e-02 -1.008135e-01 -1.484335e-01 -1.896519e-01 -2.228628e-01 -2.468589e-01 -2.608647e-01 -2.645409e-01 -2.629016e-01 -2.461324e-01 -2.202229e-01 -1.862754e-01 -1.456184e-01 -9.975406e-02 -5.031017e-02 1.002771e-03 5.243095e-02 1.022144e-01 1.486244e-01 1.900037e-01 2.248104e-01 2.516686e-01 2.694235e-01 2.772019e-01 2.744715e-01 2.610967e-01 2.373816e-01 2.040934e-01 1.624583e-01 1.141262e-01 6.110059e-02 5.638496e-03 -4.987281e-02 -1.030505e-01 -1.516493e-01 -1.936797e-01 -2.275026e-01 -2.518931e-01 -2.660721e-01 -2.697094e-01 -2.726847e-01 -2.551133e-01 -2.281216e-01 -1.928678e-01 -1.507332e-01 -1.032684e-01 -5.214521e-02 8.861442e-04 5.403419e-02 1.055016e-01 1.535203e-01 1.963898e-01 2.325205e-01 2.604837e-01 2.790689e-01 2.873469e-01 2.847349e-01 2.710576e-01 2.465982e-01 2.121273e-01 1.689047e-01 1.186449e-01 6.344485e-02 5.677153e-03 -5.214316e-02 -1.075055e-01 -1.580488e-01 -2.016897e-01 -2.367238e-01 -2.618912e-01 -2.764072e-01 -2.799604e-01 -2.871302e-01 -2.683612e-01 -2.397635e-01 -2.025775e-01 -1.582627e-01 -1.084407e-01 -5.484657e-02 7.117848e-04 5.638901e-02 1.103340e-01 1.607222e-01 2.057905e-01 2.438791e-01 2.734818e-01 2.933050e-01 3.023357e-01 2.999139e-01 2.858037e-01 2.602541e-01 2.240392e-01 1.784669e-01 1.253472e-01 6.691676e-02 5.722014e-03 -5.552974e-02 -1.141357e-01 -1.675612e-01 -2.135830e-01 -2.504001e-01 -2.767029e-01 -2.917006e-01 -2.951125e-01 -3.059414e-01 -2.855902e-01 -2.548862e-01 -2.151783e-01 -1.680274e-01 -1.151459e-01 -5.834973e-02 4.810482e-04 5.943350e-02 1.165894e-01 1.700528e-01 2.179811e-01 2.586248e-01 2.903764e-01 3.118333e-01 3.218708e-01 3.197247e-01 3.050751e-01 2.781221e-01 2.396402e-01 1.909975e-01 1.341290e-01 7.145621e-02 5.757481e-03 -6.000282e-02 -1.228651e-01 -1.800635e-01 -2.291904e-01 -2.683197e-01 -2.960795e-01 -3.116758e-01 -3.148727e-01 -3.286905e-01 -3.063911e-01 -2.731176e-01 -2.303514e-01 -1.797750e-01 -1.232092e-01 -6.256400e-02 1.967321e-04 6.308257e-02 1.240981e-01 1.812648e-01 2.326472e-01 2.763886e-01 3.107600e-01 3.342250e-01 3.455202e-01 3.437499e-01 3.284854e-01 2.998602e-01 2.586429e-01 2.062710e-01 1.448308e-01 7.697261e-02 5.763364e-03 -6.551108e-02 -1.335704e-01 -1.953616e-01 -2.482504e-01 -2.901600e-01 -3.196484e-01 -3.359241e-01 -3.388133e-01 -3.547967e-01 -3.302144e-01 -2.939622e-01 -2.476749e-01 -1.931739e-01 -1.324008e-01 -6.737001e-02 -1.361329e-04 6.722677e-02 1.326402e-01 1.940357e-01 2.493752e-01 2.966818e-01 3.340875e-01 3.599005e-01 3.726936e-01 3.714120e-01 3.554930e-01 3.249832e-01 2.806354e-01 2.239619e-01 1.572229e-01 8.333760e-02 5.716236e-03 -7.197180e-02 -1.460637e-01 -2.131664e-01 -2.703805e-01 -3.154580e-01 -3.468827e-01 -3.638764e-01 -3.663468e-01 -3.835071e-01 -3.563554e-01 -3.167905e-01 -2.666170e-01 -2.078076e-01 -1.424333e-01 -7.261786e-02 -5.096209e-04 7.173201e-02 1.419435e-01 2.079639e-01 2.676468e-01 3.188867e-01 3.596636e-01 3.881125e-01 4.026201e-01 4.019479e-01 3.853731e-01 3.528340e-01 3.050547e-01 2.436224e-01 1.709892e-01 9.037807e-02 5.591867e-03 -7.925905e-02 -1.600727e-01 -2.330680e-01 -2.950480e-01 -3.435787e-01 -3.770714e-01 -3.947755e-01 -3.967022e-01 -4.138862e-01 -3.839482e-01 -3.408356e-01 -2.865345e-01 -2.231754e-01 -1.529620e-01 -7.812739e-02 -9.123371e-04 7.644075e-02 1.516858e-01 2.225703e-01 2.868393e-01 3.422548e-01 3.866372e-01 4.179361e-01 4.343352e-01 4.343906e-01 4.171966e-01 3.825611e-01 3.311641e-01 2.646639e-01 1.857149e-01 9.787129e-02 5.369188e-03 -8.719136e-02 -1.752209e-01 -2.545113e-01 -3.215432e-01 -3.736892e-01 -4.092956e-01 -4.276568e-01 -4.289099e-01 -4.448201e-01 -4.119721e-01 -3.652023e-01 -3.066821e-01 -2.387003e-01 -1.635906e-01 -8.369107e-02 -1.329334e-03 8.117531e-02 1.615001e-01 2.373064e-01 3.062346e-01 3.659159e-01 4.140097e-01 4.482750e-01 4.666819e-01 4.675670e-01 4.498230e-01 4.131085e-01 3.580431e-01 2.863472e-01 2.008805e-01 1.055442e-01 5.035648e-03 -9.552038e-02 -1.910124e-01 -2.767779e-01 -3.489618e-01 -4.047438e-01 -4.424177e-01 -4.613422e-01 -4.618013e-01 -4.750416e-01 -4.392783e-01 -3.888916e-01 -3.262343e-01 -2.537465e-01 -1.738838e-01 -8.908064e-02 -1.742441e-03 8.574356e-02 1.709869e-01 2.515712e-01 3.250405e-01 3.889024e-01 4.406607e-01 4.778862e-01 4.983352e-01 5.001186e-01 4.819180e-01 4.432288e-01 3.845956e-01 3.077887e-01 2.158665e-01 1.130785e-01 4.593606e-03 -1.039239e-01 -2.068247e-01 -2.989823e-01 -3.762051e-01 -4.354895e-01 -4.750937e-01 -4.944588e-01 -4.940315e-01 -5.031809e-01 -4.646374e-01 -4.108439e-01 -3.443211e-01 -2.676472e-01 -1.833865e-01 -9.405732e-02 -2.131294e-03 8.994732e-02 1.797310e-01 2.647372e-01 3.424248e-01 4.101902e-01 4.653942e-01 5.054315e-01 5.278536e-01 5.305528e-01 5.120005e-01 4.715249e-01 4.095856e-01 3.279884e-01 2.299740e-01 1.201244e-01 4.066320e-03 -1.120068e-01 -2.219182e-01 -3.200889e-01 -4.020062e-01 -4.645017e-01 -5.058157e-01 -5.254864e-01 -5.241301e-01 -5.278436e-01 -4.868098e-01 -4.299990e-01 -3.600781e-01 -2.797434e-01 -1.916501e-01 -9.838559e-02 -2.474777e-03 9.359301e-02 1.873251e-01 2.761852e-01 3.575618e-01 4.287569e-01 4.870073e-01 5.295524e-01 5.537613e-01 5.573268e-01 5.385262e-01 4.965282e-01 4.317053e-01 3.458848e-01 2.424636e-01 1.263212e-01 3.501404e-03 -1.193158e-01 -2.354671e-01 -3.389592e-01 -4.249914e-01 -4.902559e-01 -5.329924e-01 -5.528412e-01 -5.505834e-01 -5.477110e-01 -5.046340e-01 -4.453710e-01 -3.727060e-01 -2.894278e-01 -1.982623e-01 -1.018492e-01 -2.752917e-03 9.650403e-02 1.933958e-01 2.853458e-01 3.696884e-01 4.436517e-01 5.043738e-01 5.489689e-01 5.746561e-01 5.789634e-01 5.600044e-01 5.168109e-01 4.496757e-01 3.604362e-01 2.526121e-01 1.313258e-01 2.968552e-03 -1.253707e-01 -2.466187e-01 -3.544343e-01 -4.437797e-01 -5.112401e-01 -5.550655e-01 -5.749922e-01 -5.719455e-01 -5.616545e-01 -5.171231e-01 -4.561276e-01 -3.815332e-01 -2.961924e-01 -2.028789e-01 -1.042675e-01 -2.948717e-03 9.853345e-02 1.976315e-01 2.917422e-01 3.781634e-01 4.540723e-01 5.165384e-01 5.625878e-01 5.893335e-01 5.941851e-01 5.751375e-01 5.311217e-01 4.623698e-01 3.707220e-01 2.597819e-01 1.348439e-01 2.548996e-03 -1.297167e-01 -2.545815e-01 -3.654521e-01 -4.571212e-01 -5.261018e-01 -5.706584e-01 -5.906025e-01 -5.869668e-01 -5.688458e-01 -5.235576e-01 -4.616648e-01 -3.860742e-01 -2.996707e-01 -2.052520e-01 -1.055106e-01 -3.049861e-03 9.957577e-02 1.998081e-01 2.950305e-01 3.825227e-01 4.594359e-01 5.228045e-01 5.696090e-01 5.969073e-01 6.020472e-01 5.829613e-01 5.385270e-01 4.689434e-01 3.760506e-01 2.634948e-01 1.366596e-01 2.316736e-03 -1.319911e-01 -2.587348e-01 -3.711878e-01 -4.640547e-01 -5.338121e-01 -5.787345e-01 -5.986748e-01 -5.947234e-01 -5.688458e-01 -5.235576e-01 -4.616648e-01 -3.860742e-01 -2.996707e-01 -2.052520e-01 -1.055106e-01 -3.049858e-03 9.957577e-02 1.998081e-01 2.950305e-01 3.825227e-01 4.594359e-01 5.228045e-01 5.696090e-01 5.969073e-01 6.020472e-01 5.829613e-01 5.385270e-01 4.689434e-01 3.760506e-01 2.634948e-01 1.366596e-01 2.316738e-03 -1.319911e-01 -2.587348e-01 -3.711878e-01 -4.640547e-01 -5.338121e-01 -5.787345e-01 -5.986748e-01 -5.947234e-01 -5.616545e-01 -5.171231e-01 -4.561276e-01 -3.815332e-01 -2.961924e-01 -2.028789e-01 -1.042675e-01 -2.948720e-03 9.853346e-02 1.976315e-01 2.917422e-01 3.781634e-01 4.540723e-01 5.165384e-01 5.625878e-01 5.893335e-01 5.941851e-01 5.751375e-01 5.311217e-01 4.623698e-01 3.707220e-01 2.597819e-01 1.348439e-01 2.548994e-03 -1.297167e-01 -2.545815e-01 -3.654521e-01 -4.571212e-01 -5.261018e-01 -5.706584e-01 -5.906025e-01 -5.869668e-01 -5.477110e-01 -5.046340e-01 -4.453710e-01 -3.727060e-01 -2.894278e-01 -1.982623e-01 -1.018492e-01 -2.752914e-03 9.650403e-02 1.933958e-01 2.853457e-01 3.696884e-01 4.436517e-01 5.043738e-01 5.489689e-01 5.746561e-01 5.789634e-01 5.600044e-01 5.168108e-01 4.496757e-01 3.604362e-01 2.526121e-01 1.313258e-01 2.968554e-03 -1.253707e-01 -2.466187e-01 -3.544343e-01 -4.437797e-01 -5.112401e-01 -5.550655e-01 -5.749922e-01 -5.719455e-01 -5.278436e-01 -4.868098e-01 -4.299990e-01 -3.600782e-01 -2.797434e-01 -1.916501e-01 -9.838559e-02 -2.474780e-03 9.359301e-02 1.873251e-01 2.761852e-01 3.575618e-01 4.287569e-01 4.870073e-01 5.295524e-01 5.537613e-01 5.573268e-01 5.385261e-01 4.965282e-01 4.317053e-01 3.458848e-01 2.424636e-01 1.263212e-01 3.501402e-03 -1.193158e-01 -2.354671e-01 -3.389592e-01 -4.249914e-01 -4.902559e-01 -5.329924e-01 -5.528412e-01 -5.505834e-01 -5.031809e-01 -4.646374e-01 -4.108439e-01 -3.443211e-01 -2.676473e-01 -1.833865e-01 -9.405732e-02 -2.131291e-03 8.994732e-02 1.797310e-01 2.647372e-01 3.424248e-01 4.101902e-01 4.653942e-01 5.054315e-01 5.278536e-01 5.305528e-01 5.120005e-01 4.715249e-01 4.095856e-01 3.279884e-01 2.299740e-01 1.201244e-01 4.066322e-03 -1.120068e-01 -2.219182e-01 -3.200889e-01 -4.020062e-01 -4.645017e-01 -5.058157e-01 -5.254864e-01 -5.241301e-01 -4.750416e-01 -4.392783e-01 -3.888916e-01 -3.262343e-01 -2.537465e-01 -1.738838e-01 -8.908064e-02 -1.742444e-03 8.574357e-02 1.709869e-01 2.515712e-01 3.250405e-01 3.889024e-01 4.406607e-01 4.778862e-01 4.983352e-01 5.001186e-01 4.819180e-01 4.432288e-01 3.845956e-01 3.077887e-01 2.158665e-01 1.130785e-01 4.593604e-03 -1.039239e-01 -2.068247e-01 -2.989823e-01 -3.762051e-01 -4.354895e-01 -4.750937e-01 -4.944588e-01 -4.940315e-01 -4.448201e-01 -4.119721e-01 -3.652023e-01 -3.066821e-01 -2.387003e-01 -1.635906e-01 -8.369107e-02 -1.329331e-03 8.117531e-02 1.615001e-01 2.373064e-01 3.062346e-01 3.659159e-01 4.140097e-01 4.482750e-01 4.666819e-01 4.675670e-01 4.498230e-01 4.131085e-01 3.580431e-01 2.863472e-01 2.008805e-01 1.055442e-01 5.035651e-03 -9.552038e-02 -1.910124e-01 -2.767779e-01 -3.489618e-01 -4.047438e-01 -4.424177e-01 -4.613422e-01 -4.618013e-01 -4.138862e-01 -3.839482e-01 -3.408356e-01 -2.865345e-01 -2.231754e-01 -1.529620e-01 -7.812738e-02 -9.123402e-04 7.644075e-02 1.516858e-01 2.225703e-01 2.868393e-01 3.422548e-01 3.866372e-01 4.179361e-01 4.343352e-01 4.343906e-01 4.171966e-01 3.825611e-01 3.311641e-01 2.646639e-01 1.857149e-01 9.787129e-02 5.369186e-03 -8.719136e-02 -1.752209e-01 -2.545113e-01 -3.215432e-01 -3.736892e-01 -4.092956e-01 -4.276567e-01 -4.289099e-01 -3.835071e-01 -3.563554e-01 -3.167905e-01 -2.666170e-01 -2.078076e-01 -1.424333e-01 -7.261787e-02 -5.096177e-04 7.173200e-02 1.419435e-01 2.079639e-01 2.676468e-01 3.188867e-01 3.596636e-01 3.881125e-01 4.026201e-01 4.019479e-01 3.853731e-01 3.528340e-01 3.050547e-01 2.436224e-01 1.709892e-01 9.037807e-02 5.591870e-03 -7.925906e-02 -1.600727e-01 -2.330680e-01 -2.950480e-01 -3.435787e-01 -3.770714e-01 -3.947755e-01 -3.967022e-01 -3.547967e-01 -3.302144e-01 -2.939622e-01 -2.476750e-01 -1.931739e-01 -1.324008e-01 -6.737001e-02 -1.361361e-04 6.722677e-02 1.326402e-01 1.940357e-01 2.493752e-01 2.966818e-01 3.340875e-01 3.599005e-01 3.726936e-01 3.714120e-01 3.554930e-01 3.249832e-01 2.806354e-01 2.239619e-01 1.572229e-01 8.333761e-02 5.716234e-03 -7.197180e-02 -1.460637e-01 -2.131664e-01 -2.703805e-01 -3.154580e-01 -3.468827e-01 -3.638764e-01 -3.663468e-01 -3.286905e-01 -3.063911e-01 -2.731176e-01 -2.303514e-01 -1.797750e-01 -1.232092e-01 -6.256401e-02 1.967353e-04 6.308257e-02 1.240981e-01 1.812648e-01 2.326472e-01 2.763886e-01 3.107600e-01 3.342250e-01 3.455202e-01 3.437499e-01 3.284854e-01 2.998602e-01 2.586429e-01 2.062710e-01 1.448308e-01 7.697261e-02 5.763367e-03 -6.551109e-02 -1.335704e-01 -1.953616e-01 -2.482504e-01 -2.901600e-01 -3.196484e-01 -3.359241e-01 -3.388133e-01 -3.059414e-01 -2.855902e-01 -2.548862e-01 -2.151783e-01 -1.680274e-01 -1.151459e-01 -5.834972e-02 4.810449e-04 5.943350e-02 1.165894e-01 1.700528e-01 2.179811e-01 2.586248e-01 2.903764e-01 3.118333e-01 3.218708e-01 3.197247e-01 3.050751e-01 2.781221e-01 2.396402e-01 1.909975e-01 1.341289e-01 7.145621e-02 5.757478e-03 -6.000281e-02 -1.228651e-01 -1.800635e-01 -2.291904e-01 -2.683197e-01 -2.960795e-01 -3.116758e-01 -3.148727e-01 -2.871302e-01 -2.683612e-01 -2.397635e-01 -2.025775e-01 -1.582627e-01 -1.084407e-01 -5.484657e-02 7.117881e-04 5.638901e-02 1.103340e-01 1.607222e-01 2.057905e-01 2.438791e-01 2.734818e-01 2.933050e-01 3.023357e-01 2.999139e-01 2.858037e-01 2.602541e-01 2.240392e-01 1.784669e-01 1.253472e-01 6.691676e-02 5.722017e-03 -5.552974e-02 -1.141357e-01 -1.675612e-01 -2.135830e-01 -2.504001e-01 -2.767028e-01 -2.917006e-01 -2.951125e-01 -2.726847e-01 -2.551133e-01 -2.281216e-01 -1.928678e-01 -1.507331e-01 -1.032684e-01 -5.214521e-02 8.861409e-04 5.403419e-02 1.055016e-01 1.535203e-01 1.963898e-01 2.325205e-01 2.604837e-01 2.790689e-01 2.873469e-01 2.847349e-01 2.710576e-01 2.465982e-01 2.121273e-01 1.689047e-01 1.186449e-01 6.344485e-02 5.677150e-03 -5.214316e-02 -1.075055e-01 -1.580488e-01 -2.016897e-01 -2.367238e-01 -2.618912e-01 -2.764072e-01 -2.799604e-01 -2.629016e-01 -2.461324e-01 -2.202229e-01 -1.862754e-01 -1.456184e-01 -9.975406e-02 -5.031018e-02 1.002774e-03 5.243094e-02 1.022144e-01 1.486244e-01 1.900037e-01 2.248104e-01 2.516686e-01 2.694235e-01 2.772019e-01 2.744715e-01 2.610967e-01 2.373816e-01 2.040934e-01 1.624583e-01 1.141262e-01 6.110058e-02 5.638498e-03 -4.987281e-02 -1.030505e-01 -1.516493e-01 -1.936797e-01 -2.275026e-01 -2.518931e-01 -2.660721e-01 -2.697094e-01 -2.579657e-01 -2.415987e-01 -2.162334e-01 -1.829443e-01 -1.430332e-01 -9.797746e-02 -4.938266e-02 1.061156e-03 5.161946e-02 1.005515e-01 1.461487e-01 1.867757e-01 2.209151e-01 2.472174e-01 2.645560e-01 2.720853e-01 2.692984e-01 2.560790e-01 2.327414e-01 2.000503e-01 1.592149e-01 1.118526e-01 5.992005e-02 5.616545e-03 -4.873435e-02 -1.008135e-01 -1.484335e-01 -1.896520e-01 -2.228628e-01 -2.468589e-01 -2.608647e-01 -2.645409e-01 -2.629016e-01 -2.461324e-01 -2.202229e-01 -1.862754e-01 -1.456184e-01 -9.975406e-02 -5.031017e-02 1.002771e-03 5.243095e-02 1.022144e-01 1.486244e-01 1.900037e-01 2.248104e-01 2.516686e-01 2.694235e-01 2.772019e-01 2.744715e-01 2.610967e-01 2.373816e-01 2.040934e-01 1.624583e-01 1.141262e-01 6.110059e-02 5.638496e-03 -4.987281e-02 -1.030505e-01 -1.516493e-01 -1.936797e-01 -2.275026e-01 -2.518931e-01 -2.660721e-01 -2.697094e-01 -2.680985e-01 -2.508976e-01 -2.244092e-01 -1.897658e-01 -1.483241e-01 -1.016117e-01 -5.127940e-02 9.418653e-04 5.327896e-02 1.039528e-01 1.512145e-01 1.933844e-01 2.288955e-01 2.563439e-01 2.745453e-01 2.825958e-01 2.799356e-01 2.664069e-01 2.423015e-01 2.083875e-01 1.659084e-01 1.165481e-01 6.236033e-02 5.664530e-03 -5.108279e-02 -1.054295e-01 -1.550674e-01 -1.979565e-01 -2.324226e-01 -2.572226e-01 -2.715753e-01 -2.751615e-01 -2.784079e-01 -2.603439e-01 -2.327032e-01 -1.966777e-01 -1.536801e-01 -1.052883e-01 -5.319791e-02 8.201071e-04 5.495516e-02 1.073909e-01 1.563392e-01 2.000763e-01 2.369862e-01 2.656095e-01 2.847022e-01 2.933000e-01 2.907868e-01 2.769598e-01 2.520850e-01 2.169311e-01 1.727750e-01 1.213686e-01 6.486567e-02 5.711208e-03 -5.349910e-02 -1.101738e-01 -1.618787e-01 -2.064728e-01 -2.422124e-01 -2.678191e-01 -2.825085e-01 -2.859847e-01 -2.936513e-01 -2.742958e-01 -2.449412e-01 -2.068682e-01 -1.615720e-01 -1.107040e-01 -5.602449e-02 6.378758e-04 5.741899e-02 1.124494e-01 1.638841e-01 2.099364e-01 2.489177e-01 2.792873e-01 2.997124e-01 3.091375e-01 3.068608e-01 2.926098e-01 2.666088e-01 2.296252e-01 1.829832e-01 1.285352e-01 6.858537e-02 5.767670e-03 -5.711179e-02 -1.172509e-01 -1.720261e-01 -2.191448e-01 -2.567611e-01 -2.835464e-01 -2.987144e-01 -3.020071e-01 -3.135392e-01 -2.924709e-01 -2.608623e-01 -2.201111e-01 -1.718193e-01 -1.177329e-01 -5.969409e-02 3.963409e-04 6.060768e-02 1.190043e-01 1.736704e-01 2.227389e-01 2.644287e-01 2.970931e-01 3.192823e-01 3.298192e-01 3.278854e-01 3.131120e-01 2.856631e-01 2.462986e-01 1.964018e-01 1.379562e-01 7.346563e-02 5.817499e-03 -6.189912e-02 -1.265991e-01 -1.854050e-01 -2.358240e-01 -2.758771e-01 -3.041739e-01 -3.199311e-01 -3.229466e-01 -3.376476e-01 -3.144605e-01 -2.800925e-01 -2.360842e-01 -1.841666e-01 -1.261975e-01 -6.411462e-02 9.821101e-05 6.443442e-02 1.268830e-01 1.854468e-01 2.381650e-01 2.831467e-01 3.186175e-01 3.429843e-01 3.549180e-01 3.534527e-01 3.380937e-01 3.089225e-01 2.666821e-01 2.128220e-01 1.494849e-01 7.942222e-02 5.839028e-03 -6.781923e-02 -1.381111e-01 -2.018419e-01 -2.562707e-01 -2.992587e-01 -3.293462e-01 -3.457629e-01 -3.483836e-01 -3.653913e-01 -3.397078e-01 -3.021275e-01 -2.543570e-01 -1.982743e-01 -1.358624e-01 -6.916368e-02 -2.514933e-04 6.878677e-02 1.358598e-01 1.988826e-01 2.557916e-01 3.045729e-01 3.433063e-01 3.702316e-01 3.838398e-01 3.829860e-01 3.670186e-01 3.359114e-01 2.903758e-01 2.319306e-01 1.629011e-01 8.633118e-02 5.806357e-03 -7.479889e-02 -1.516144e-01 -2.210659e-01 -2.801208e-01 -3.264581e-01 -3.585474e-01 -3.756459e-01 -3.777305e-01 -3.959992e-01 -3.674886e-01 -3.263185e-01 -2.743804e-01 -2.137122e-01 -1.464303e-01 -7.468629e-02 -6.445792e-04 7.352597e-02 1.456533e-01 2.135625e-01 2.750833e-01 3.280699e-01 3.704429e-01 4.002561e-01 4.157953e-01 4.157069e-01 3.991518e-01 3.659675e-01 3.168158e-01 2.532817e-01 1.778907e-01 9.401933e-02 5.691655e-03 -8.271957e-02 -1.668464e-01 -2.426770e-01 -3.068489e-01 -3.568428e-01 -3.910627e-01 -4.088130e-01 -4.102014e-01 -4.284974e-01 -3.968999e-01 -3.518656e-01 -2.954833e-01 -2.299580e-01 -1.575417e-01 -8.049445e-02 -1.069137e-03 7.848781e-02 1.559272e-01 2.289870e-01 2.953902e-01 3.528566e-01 3.991395e-01 4.320934e-01 4.497793e-01 4.506097e-01 4.335287e-01 3.982095e-01 3.452422e-01 2.762695e-01 1.940275e-01 1.022563e-01 5.469088e-03 -9.140191e-02 -1.834293e-01 -2.661136e-01 -3.357319e-01 -3.895590e-01 -4.259447e-01 -4.442655e-01 -4.447892e-01 -4.617080e-01 -4.268634e-01 -3.778239e-01 -3.168802e-01 -2.464040e-01 -1.687797e-01 -8.636997e-02 -1.509308e-03 8.348568e-02 1.662960e-01 2.445792e-01 3.159563e-01 3.780153e-01 4.283416e-01 4.645840e-01 4.845670e-01 4.864511e-01 4.689403e-01 4.315179e-01 3.746791e-01 3.001107e-01 2.107601e-01 1.107506e-01 5.120709e-03 -1.005903e-01 -2.008473e-01 -2.906252e-01 -3.658212e-01 -4.235058e-01 -4.619930e-01 -4.807583e-01 -4.802579e-01 -4.942708e-01 -4.561494e-01 -4.031272e-01 -3.376920e-01 -2.623748e-01 -1.796826e-01 -9.207102e-02 -1.945763e-03 8.831647e-02 1.763367e-01 2.597018e-01 3.359400e-01 4.025157e-01 4.568523e-01 4.963963e-01 5.187338e-01 5.217660e-01 5.039430e-01 4.645394e-01 4.039351e-01 3.238427e-01 2.274121e-01 1.191525e-01 4.643933e-03 -1.099410e-01 -2.184318e-01 -3.152579e-01 -3.959316e-01 -4.573309e-01 -4.977571e-01 -5.168111e-01 -5.151604e-01 -5.246951e-01 -4.834264e-01 -4.266328e-01 -3.569848e-01 -2.771570e-01 -1.897648e-01 -9.734318e-02 -2.356727e-03 9.276921e-02 1.856072e-01 2.736847e-01 3.544503e-01 4.252574e-01 4.833812e-01 5.260788e-01 5.507084e-01 5.549183e-01 5.369048e-01 4.957268e-01 4.316347e-01 3.463483e-01 2.431994e-01 1.270660e-01 4.059645e-03 -1.190181e-01 -2.353626e-01 -3.388628e-01 -4.246592e-01 -4.894584e-01 -5.315744e-01 -5.507543e-01 -5.478887e-01 -5.514443e-01 -5.073380e-01 -4.471882e-01 -3.738236e-01 -2.900408e-01 -1.985448e-01 -1.019342e-01 -2.719721e-03 9.663666e-02 1.936705e-01 2.858629e-01 3.705968e-01 4.451328e-01 5.066180e-01 5.521429e-01 5.788619e-01 5.841925e-01 5.660951e-01 5.234218e-01 4.562908e-01 3.664125e-01 2.572708e-01 1.340727e-01 3.418379e-03 -1.273039e-01 -2.506948e-01 -3.601392e-01 -4.504397e-01 -5.181615e-01 -5.616530e-01 -5.808169e-01 -5.767628e-01 -5.730501e-01 -5.266020e-01 -4.637135e-01 -3.873388e-01 -3.003693e-01 -2.055782e-01 -1.056118e-01 -3.013520e-03 9.972866e-02 2.001244e-01 2.956208e-01 3.835516e-01 4.611050e-01 5.253266e-01 5.731723e-01 6.016298e-01 6.079248e-01 5.898184e-01 5.459841e-01 4.764200e-01 3.828167e-01 2.687736e-01 1.397649e-01 2.800517e-03 -1.342310e-01 -2.634205e-01 -3.777224e-01 -4.716577e-01 -5.416862e-01 -5.862035e-01 -6.052591e-01 -6.001563e-01 -5.882444e-01 -5.401221e-01 -4.752925e-01 -3.967967e-01 -3.075905e-01 -2.104930e-01 -1.081814e-01 -3.220240e-03 1.018864e-01 2.046318e-01 3.024413e-01 3.926157e-01 4.722938e-01 5.384510e-01 5.879487e-01 6.176561e-01 6.246613e-01 6.065807e-01 5.619559e-01 4.906933e-01 3.944627e-01 2.769392e-01 1.437847e-01 2.305383e-03 -1.392422e-01 -2.725728e-01 -3.903230e-01 -4.868109e-01 -5.584281e-01 -6.036156e-01 -6.225392e-01 -6.166481e-01 -5.960908e-01 -5.470947e-01 -4.812580e-01 -4.016655e-01 -3.113058e-01 -2.130207e-01 -1.095028e-01 -3.326964e-03 1.029952e-01 2.069493e-01 3.059500e-01 3.972814e-01 4.780576e-01 5.452179e-01 5.955750e-01 6.259367e-01 6.333190e-01 6.152622e-01 5.702377e-01 4.981023e-01 4.005122e-01 2.811803e-01 1.458647e-01 2.027794e-03 -1.418789e-01 -2.773697e-01 -3.969119e-01 -4.947164e-01 -5.671418e-01 -6.126575e-01 -6.314935e-01 -6.251779e-01 -5.960908e-01 -5.470947e-01 -4.812580e-01 -4.016655e-01 -3.113058e-01 -2.130207e-01 -1.095028e-01 -3.326967e-03 1.029952e-01 2.069493e-01 3.059500e-01 3.972814e-01 4.780576e-01 5.452179e-01 5.955750e-01 6.259367e-01 6.333190e-01 6.152622e-01 5.702377e-01 4.981023e-01 4.005122e-01 2.811803e-01 1.458647e-01 2.027792e-03 -1.418789e-01 -2.773697e-01 -3.969119e-01 -4.947164e-01 -5.671418e-01 -6.126575e-01 -6.314935e-01 -6.251779e-01 -5.882444e-01 -5.401221e-01 -4.752925e-01 -3.967967e-01 -3.075905e-01 -2.104930e-01 -1.081814e-01 -3.220237e-03 1.018864e-01 2.046318e-01 3.024413e-01 3.926157e-01 4.722938e-01 5.384510e-01 5.879487e-01 6.176561e-01 6.246613e-01 6.065807e-01 5.619559e-01 4.906933e-01 3.944627e-01 2.769392e-01 1.437847e-01 2.305385e-03 -1.392422e-01 -2.725728e-01 -3.903230e-01 -4.868109e-01 -5.584281e-01 -6.036156e-01 -6.225392e-01 -6.166481e-01 -5.730501e-01 -5.266020e-01 -4.637135e-01 -3.873388e-01 -3.003693e-01 -2.055782e-01 -1.056118e-01 -3.013523e-03 9.972866e-02 2.001244e-01 2.956208e-01 3.835516e-01 4.611050e-01 5.253266e-01 5.731723e-01 6.016298e-01 6.079248e-01 5.898184e-01 5.459841e-01 4.764200e-01 3.828167e-01 2.687736e-01 1.397649e-01 2.800515e-03 -1.342310e-01 -2.634205e-01 -3.777224e-01 -4.716577e-01 -5.416862e-01 -5.862035e-01 -6.052591e-01 -6.001563e-01 -5.514443e-01 -5.073380e-01 -4.471882e-01 -3.738236e-01 -2.900408e-01 -1.985448e-01 -1.019342e-01 -2.719718e-03 9.663665e-02 1.936705e-01 2.858629e-01 3.705968e-01 4.451328e-01 5.066180e-01 5.521429e-01 5.788619e-01 5.841925e-01 5.660951e-01 5.234218e-01 4.562908e-01 3.664125e-01 2.572708e-01 1.340727e-01 3.418381e-03 -1.273039e-01 -2.506948e-01 -3.601392e-01 -4.504397e-01 -5.181615e-01 -5.616530e-01 -5.808169e-01 -5.767628e-01 -5.246951e-01 -4.834264e-01 -4.266328e-01 -3.569848e-01 -2.771570e-01 -1.897648e-01 -9.734318e-02 -2.356730e-03 9.276921e-02 1.856072e-01 2.736847e-01 3.544503e-01 4.252574e-01 4.833812e-01 5.260788e-01 5.507084e-01 5.549183e-01 5.369048e-01 4.957268e-01 4.316347e-01 3.463483e-01 2.431994e-01 1.270660e-01 4.059642e-03 -1.190181e-01 -2.353626e-01 -3.388628e-01 -4.246592e-01 -4.894584e-01 -5.315744e-01 -5.507543e-01 -5.478887e-01 -4.942708e-01 -4.561494e-01 -4.031272e-01 -3.376920e-01 -2.623748e-01 -1.796826e-01 -9.207102e-02 -1.945760e-03 8.831647e-02 1.763367e-01 2.597018e-01 3.359400e-01 4.025157e-01 4.568523e-01 4.963962e-01 5.187338e-01 5.217660e-01 5.039431e-01 4.645394e-01 4.039351e-01 3.238427e-01 2.274121e-01 1.191525e-01 4.643935e-03 -1.099410e-01 -2.184318e-01 -3.152579e-01 -3.959316e-01 -4.573309e-01 -4.977571e-01 -5.168111e-01 -5.151604e-01 -4.617080e-01 -4.268634e-01 -3.778239e-01 -3.168802e-01 -2.464040e-01 -1.687797e-01 -8.636996e-02 -1.509311e-03 8.348569e-02 1.662960e-01 2.445792e-01 3.159563e-01 3.780153e-01 4.283416e-01 4.645840e-01 4.845670e-01 4.864511e-01 4.689403e-01 4.315179e-01 3.746791e-01 3.001107e-01 2.107601e-01 1.107506e-01 5.120707e-03 -1.005903e-01 -2.008473e-01 -2.906252e-01 -3.658212e-01 -4.235058e-01 -4.619930e-01 -4.807583e-01 -4.802579e-01 -4.284974e-01 -3.968999e-01 -3.518656e-01 -2.954833e-01 -2.299580e-01 -1.575417e-01 -8.049445e-02 -1.069134e-03 7.848780e-02 1.559272e-01 2.289870e-01 2.953902e-01 3.528566e-01 3.991395e-01 4.320934e-01 4.497793e-01 4.506097e-01 4.335287e-01 3.982095e-01 3.452422e-01 2.762695e-01 1.940275e-01 1.022563e-01 5.469091e-03 -9.140192e-02 -1.834293e-01 -2.661136e-01 -3.357319e-01 -3.895590e-01 -4.259447e-01 -4.442655e-01 -4.447892e-01 -3.959992e-01 -3.674886e-01 -3.263185e-01 -2.743804e-01 -2.137122e-01 -1.464303e-01 -7.468628e-02 -6.445823e-04 7.352597e-02 1.456533e-01 2.135625e-01 2.750833e-01 3.280699e-01 3.704429e-01 4.002561e-01 4.157953e-01 4.157069e-01 3.991518e-01 3.659675e-01 3.168158e-01 2.532817e-01 1.778907e-01 9.401934e-02 5.691652e-03 -8.271957e-02 -1.668464e-01 -2.426770e-01 -3.068489e-01 -3.568428e-01 -3.910627e-01 -4.088130e-01 -4.102014e-01 -3.653913e-01 -3.397078e-01 -3.021275e-01 -2.543570e-01 -1.982743e-01 -1.358624e-01 -6.916368e-02 -2.514901e-04 6.878677e-02 1.358598e-01 1.988826e-01 2.557916e-01 3.045729e-01 3.433063e-01 3.702316e-01 3.838398e-01 3.829860e-01 3.670186e-01 3.359114e-01 2.903758e-01 2.319306e-01 1.629011e-01 8.633118e-02 5.806359e-03 -7.479889e-02 -1.516144e-01 -2.210659e-01 -2.801208e-01 -3.264581e-01 -3.585474e-01 -3.756459e-01 -3.777305e-01 -3.376476e-01 -3.144605e-01 -2.800925e-01 -2.360842e-01 -1.841666e-01 -1.261975e-01 -6.411462e-02 9.820779e-05 6.443442e-02 1.268830e-01 1.854468e-01 2.381650e-01 2.831467e-01 3.186175e-01 3.429843e-01 3.549180e-01 3.534527e-01 3.380937e-01 3.089225e-01 2.666820e-01 2.128220e-01 1.494849e-01 7.942222e-02 5.839026e-03 -6.781923e-02 -1.381111e-01 -2.018419e-01 -2.562707e-01 -2.992587e-01 -3.293462e-01 -3.457629e-01 -3.483836e-01 -3.135392e-01 -2.924709e-01 -2.608623e-01 -2.201111e-01 -1.718193e-01 -1.177329e-01 -5.969409e-02 3.963441e-04 6.060768e-02 1.190043e-01 1.736704e-01 2.227389e-01 2.644287e-01 2.970931e-01 3.192823e-01 3.298192e-01 3.278854e-01 3.131120e-01 2.856631e-01 2.462986e-01 1.964018e-01 1.379562e-01 7.346563e-02 5.817502e-03 -6.189912e-02 -1.265991e-01 -1.854051e-01 -2.358240e-01 -2.758771e-01 -3.041739e-01 -3.199311e-01 -3.229466e-01 -2.936513e-01 -2.742958e-01 -2.449412e-01 -2.068682e-01 -1.615720e-01 -1.107040e-01 -5.602449e-02 6.378725e-04 5.741899e-02 1.124494e-01 1.638841e-01 2.099364e-01 2.489177e-01 2.792873e-01 2.997124e-01 3.091375e-01 3.068608e-01 2.926098e-01 2.666088e-01 2.296252e-01 1.829832e-01 1.285352e-01 6.858537e-02 5.767667e-03 -5.711179e-02 -1.172509e-01 -1.720261e-01 -2.191448e-01 -2.567611e-01 -2.835464e-01 -2.987144e-01 -3.020071e-01 -2.784079e-01 -2.603439e-01 -2.327032e-01 -1.966777e-01 -1.536801e-01 -1.052883e-01 -5.319791e-02 8.201104e-04 5.495516e-02 1.073909e-01 1.563392e-01 2.000763e-01 2.369862e-01 2.656095e-01 2.847022e-01 2.933000e-01 2.907868e-01 2.769598e-01 2.520849e-01 2.169311e-01 1.727750e-01 1.213686e-01 6.486566e-02 5.711211e-03 -5.349910e-02 -1.101738e-01 -1.618787e-01 -2.064728e-01 -2.422124e-01 -2.678191e-01 -2.825085e-01 -2.859847e-01 -2.680985e-01 -2.508976e-01 -2.244092e-01 -1.897658e-01 -1.483241e-01 -1.016117e-01 -5.127939e-02 9.418620e-04 5.327896e-02 1.039528e-01 1.512145e-01 1.933844e-01 2.288955e-01 2.563439e-01 2.745453e-01 2.825958e-01 2.799356e-01 2.664069e-01 2.423015e-01 2.083875e-01 1.659084e-01 1.165481e-01 6.236034e-02 5.664528e-03 -5.108279e-02 -1.054295e-01 -1.550674e-01 -1.979565e-01 -2.324226e-01 -2.572226e-01 -2.715753e-01 -2.751615e-01 -2.629016e-01 -2.461324e-01 -2.202229e-01 -1.862754e-01 -1.456184e-01 -9.975406e-02 -5.031018e-02 1.002774e-03 5.243094e-02 1.022144e-01 1.486244e-01 1.900037e-01 2.248104e-01 2.516686e-01 2.694235e-01 2.772019e-01 2.744715e-01 2.610967e-01 2.373816e-01 2.040934e-01 1.624583e-01 1.141262e-01 6.110058e-02 5.638498e-03 -4.987281e-02 -1.030505e-01 -1.516493e-01 -1.936797e-01 -2.275026e-01 -2.518931e-01 -2.660721e-01 -2.697094e-01 -2.726847e-01 -2.551133e-01 -2.281216e-01 -1.928678e-01 -1.507332e-01 -1.032684e-01 -5.214521e-02 8.861442e-04 5.403419e-02 1.055016e-01 1.535203e-01 1.963898e-01 2.325205e-01 2.604837e-01 2.790689e-01 2.873469e-01 2.847349e-01 2.710576e-01 2.465982e-01 2.121273e-01 1.689047e-01 1.186449e-01 6.344485e-02 5.677153e-03 -5.214316e-02 -1.075055e-01 -1.580488e-01 -2.016897e-01 -2.367238e-01 -2.618912e-01 -2.764072e-01 -2.799604e-01 -2.784079e-01 -2.603439e-01 -2.327032e-01 -1.966777e-01 -1.536801e-01 -1.052883e-01 -5.319791e-02 8.201071e-04 5.495516e-02 1.073909e-01 1.563392e-01 2.000763e-01 2.369862e-01 2.656095e-01 2.847022e-01 2.933000e-01 2.907868e-01 2.769598e-01 2.520850e-01 2.169311e-01 1.727750e-01 1.213686e-01 6.486567e-02 5.711208e-03 -5.349910e-02 -1.101738e-01 -1.618787e-01 -2.064728e-01 -2.422124e-01 -2.678191e-01 -2.825085e-01 -2.859847e-01 -2.897785e-01 -2.707274e-01 -2.417916e-01 -2.042309e-01 -1.595196e-01 -1.092900e-01 -5.528361e-02 6.879138e-04 5.677708e-02 1.111310e-01 1.619219e-01 2.073815e-01 2.458409e-01 2.757806e-01 2.958895e-01 3.051328e-01 3.028268e-01 2.887123e-01 2.630191e-01 2.265109e-01 1.804969e-01 1.268037e-01 6.769914e-02 5.773749e-03 -5.621383e-02 -1.155086e-01 -1.695298e-01 -2.160197e-01 -2.531578e-01 -2.796296e-01 -2.946528e-01 -2.979643e-01 -3.066338e-01 -2.860984e-01 -2.552292e-01 -2.153874e-01 -1.681386e-01 -1.151937e-01 -5.836119e-02 4.895964e-04 5.945880e-02 1.166416e-01 1.701541e-01 2.181632e-01 2.589237e-01 2.908269e-01 3.124613e-01 3.226862e-01 3.207141e-01 3.061977e-01 2.793090e-01 2.407994e-01 1.920240e-01 1.349193e-01 7.192540e-02 5.853328e-03 -6.028998e-02 -1.235007e-01 -1.809753e-01 -2.302814e-01 -2.694840e-01 -2.972186e-01 -3.127101e-01 -3.157488e-01 -3.287015e-01 -3.061846e-01 -2.727597e-01 -2.299220e-01 -1.793557e-01 -1.228723e-01 -6.236488e-02 2.259727e-04 6.293596e-02 1.237966e-01 1.808544e-01 2.321948e-01 2.759749e-01 3.104702e-01 3.341368e-01 3.456912e-01 3.442048e-01 3.292070e-01 3.007854e-01 2.596673e-01 2.072628e-01 1.456524e-01 7.750564e-02 5.932234e-03 -6.572374e-02 -1.341204e-01 -1.961531e-01 -2.491560e-01 -2.910457e-01 -3.203970e-01 -3.364526e-01 -3.390815e-01 -3.555692e-01 -