<VTKFile type="RectilinearGrid">
<RectilinearGrid WholeExtent="0 32 0 32 0 32" GhostLevel="0">
<Piece Extent="0 32 0 32 0 32">
<CellData Scalars="p phase" Vectors="vel">
<DataArray type="Float32" Name="p">
-2.663847e-01 -2.489061e-01 -2.226831e-01 -1.888286e-01 -1.486676e-01 -1.036843e-01 -5.547543e-02 -5.708091e-03 4.391809e-02 9.170659e-02 1.359999e-01 1.752175e-01 2.078984e-01 2.327489e-01 2.486950e-01 2.549393e-01 2.510168e-01 2.368465e-01 2.127704e-01 1.795739e-01 1.384804e-01 9.111513e-02 3.943709e-02 -1.435764e-02 -6.795495e-02 -1.190527e-01 -1.654893e-01 -2.053588e-01 -2.371023e-01 -2.595698e-01 -2.720503e-01 -2.742733e-01 -2.712117e-01 -2.533062e-01 -2.265211e-01 -1.919984e-01 -1.510896e-01 -1.053032e-01 -5.625752e-02 -5.638779e-03 4.483530e-02 9.345041e-02 1.385301e-01 1.784731e-01 2.117952e-01 2.371768e-01 2.535166e-01 2.599897e-01 2.561065e-01 2.417664e-01 2.173014e-01 1.834993e-01 1.416003e-01 9.326229e-02 4.049154e-02 -1.445758e-02 -6.920653e-02 -1.213887e-01 -1.687843e-01 -2.094404e-01 -2.417658e-01 -2.645940e-01 -2.772129e-01 -2.793633e-01 -2.807748e-01 -2.620183e-01 -2.341165e-01 -1.982683e-01 -1.558786e-01 -1.085035e-01 -5.780325e-02 -5.501737e-03 4.664843e-02 9.689809e-02 1.435340e-01 1.849141e-01 2.195083e-01 2.459459e-01 2.630712e-01 2.700045e-01 2.662058e-01 2.515355e-01 2.263043e-01 1.913034e-01 1.478063e-01 9.753555e-02 4.259158e-02 -1.465449e-02 -7.169489e-02 -1.260339e-01 -1.753349e-01 -2.175514e-01 -2.510282e-01 -2.745671e-01 -2.874542e-01 -2.894538e-01 -2.948849e-01 -2.748604e-01 -2.453026e-01 -2.074955e-01 -1.629222e-01 -1.132084e-01 -6.007505e-02 -5.300051e-03 4.931384e-02 1.019678e-01 1.508955e-01 1.943957e-01 2.308713e-01 2.588764e-01 2.771744e-01 2.848030e-01 2.811461e-01 2.660034e-01 2.396516e-01 2.028849e-01 1.570243e-01 1.038882e-01 4.571721e-02 -1.494206e-02 -7.538749e-02 -1.329289e-01 -1.850548e-01 -2.295788e-01 -2.647513e-01 -2.893285e-01 -3.025966e-01 -3.043576e-01 -3.132401e-01 -2.915439e-01 -2.598177e-01 -2.194567e-01 -1.720454e-01 -1.192987e-01 -6.301465e-02 -5.038691e-03 5.276395e-02 1.085323e-01 1.604335e-01 2.066914e-01 2.456226e-01 2.756838e-01 2.955314e-01 3.040937e-01 3.006515e-01 2.849212e-01 2.571300e-01 2.180717e-01 1.691270e-01 1.122386e-01 4.983289e-02 -1.531005e-02 -8.022829e-02 -1.419721e-01 -1.977969e-01 -2.453316e-01 -2.827041e-01 -3.086138e-01 -3.223514e-01 -3.237727e-01 -3.354072e-01 -3.116592e-01 -2.772929e-01 -2.338391e-01 -1.830045e-01 -1.266094e-01 -6.654150e-02 -4.724497e-03 5.690502e-02 1.164150e-01 1.718960e-01 2.214839e-01 2.633931e-01 2.959626e-01 3.177184e-01 3.274527e-01 3.243161e-01 3.079169e-01 2.784156e-01 2.365986e-01 1.839147e-01 1.224571e-01 5.488096e-02 -1.574345e-02 -8.612986e-02 -1.530044e-01 -2.133331e-01 -2.645175e-01 -3.045379e-01 -3.320291e-01 -3.462939e-01 -3.472611e-01 -3.608020e-01 -3.346595e-01 -2.972404e-01 -2.502326e-01 -1.954816e-01 -1.349256e-01 -7.055124e-02 -4.366495e-03 6.161545e-02 1.253863e-01 1.849534e-01 2.383560e-01 2.836936e-01 3.191707e-01 3.431622e-01 3.542991e-01 3.515756e-01 3.344663e-01 3.030447e-01 2.580799e-01 2.010932e-01 1.343499e-01 6.077330e-02 -1.622212e-02 -9.296396e-02 -1.657927e-01 -2.313312e-01 -2.867154e-01 -3.297566e-01 -3.590220e-01 -3.738372e-01 -3.742248e-01 -3.886734e-01 -3.598494e-01 -3.190458e-01 -2.681244e-01 -2.090818e-01 -1.439820e-01 -7.491515e-02 -3.975900e-03 6.674483e-02 1.351614e-01 1.991954e-01 2.567846e-01 3.059056e-01 3.446162e-01 3.711225e-01 3.838735e-01 3.816818e-01 3.638638e-01 3.303839e-01 2.819811e-01 2.202486e-01 1.476405e-01 6.738171e-02 -1.672089e-02 -1.005525e-01 -1.800117e-01 -2.513310e-01 -3.113476e-01 -3.576884e-01 -3.888539e-01 -4.042068e-01 -4.038855e-01 -4.180962e-01 -3.863817e-01 -3.419672e-01 -2.869000e-01 -2.233345e-01 -1.534637e-01 -7.948105e-02 -3.566155e-03 7.211499e-02 1.454019e-01 2.141321e-01 2.761413e-01 3.292801e-01 3.714521e-01 4.006832e-01 4.152236e-01 4.136842e-01 3.952002e-01 3.596059e-01 3.075942e-01 2.408259e-01 1.619532e-01 7.452821e-02 -1.721107e-02 -1.086607e-01 -1.952310e-01 -2.727258e-01 -3.376589e-01 -3.874643e-01 -4.205816e-01 -4.364260e-01 -4.352737e-01 -4.479798e-01 -4.132672e-01 -3.651461e-01 -3.058538e-01 -2.377028e-01 -1.630128e-01 -8.407642e-02 -3.152659e-03 7.752334e-02 1.557221e-01 2.292022e-01 2.957016e-01 3.529461e-01 3.986845e-01 4.307573e-01 4.472063e-01 4.464267e-01 4.273552e-01 3.896774e-01 3.340243e-01 2.621150e-01 1.768014e-01 8.197710e-02 -1.766339e-02 -1.169951e-01 -2.109084e-01 -2.947537e-01 -3.647083e-01 -4.180124e-01 -4.530538e-01 -4.693168e-01 -4.672331e-01 -4.770963e-01 -4.394028e-01 -3.876332e-01 -3.242106e-01 -2.516000e-01 -1.722399e-01 -8.851401e-02 -2.752307e-03 8.274941e-02 1.657011e-01 2.437908e-01 3.146661e-01 3.759356e-01 4.251983e-01 4.601123e-01 4.785107e-01 4.785679e-01 4.590129e-01 4.193702e-01 3.601946e-01 2.832516e-01 1.915857e-01 8.943161e-02 -1.805250e-02 -1.252092e-01 -2.263977e-01 -3.165084e-01 -3.913830e-01 -4.480753e-01 -4.849337e-01 -5.015252e-01 -4.984492e-01 -5.041331e-01 -4.636194e-01 -4.084296e-01 -3.411602e-01 -2.644157e-01 -1.807413e-01 -9.260021e-02 -2.382769e-03 8.756467e-02 1.749016e-01 2.572556e-01 3.321957e-01 3.972245e-01 4.498037e-01 4.874207e-01 5.077097e-01 5.086312e-01 4.887087e-01 4.473017e-01 3.848803e-01 3.032425e-01 2.056090e-01 9.653890e-02 -1.836178e-02 -1.329180e-01 -2.409725e-01 -3.369719e-01 -4.164390e-01 -4.762580e-01 -5.147513e-01 -5.315768e-01 -5.275037e-01 -5.277686e-01 -4.847486e-01 -4.265437e-01 -3.559027e-01 -2.755501e-01 -1.881215e-01 -9.614566e-02 -2.061443e-03 9.174507e-02 1.828936e-01 2.689635e-01 3.474580e-01 4.157907e-01 4.713040e-01 5.113354e-01 5.333415e-01 5.350891e-01 5.149114e-01 4.720123e-01 4.067753e-01 3.210180e-01 2.181124e-01 1.029070e-01 -1.858664e-02 -1.397212e-01 -2.538686e-01 -3.550731e-01 -4.385738e-01 -5.011094e-01 -5.409890e-01 -5.579617e-01 -5.529567e-01 -5.467659e-01 -5.017037e-01 -4.410587e-01 -3.677019e-01 -2.844534e-01 -1.940189e-01 -9.897758e-02 -1.804354e-03 9.508572e-02 1.892834e-01 2.783317e-01 3.596842e-01 4.306840e-01 4.885793e-01 5.305865e-01 5.540170e-01 5.564771e-01 5.361407e-01 4.920776e-01 4.245937e-01 3.355158e-01 2.283351e-01 1.081358e-01 -1.873427e-02 -1.452341e-01 -2.643425e-01 -3.697706e-01 -4.565254e-01 -5.212319e-01 -5.621954e-01 -5.792466e-01 -5.734514e-01 -5.600754e-01 -5.135679e-01 -4.512045e-01 -3.759421e-01 -2.906667e-01 -1.981325e-01 -1.009523e-01 -1.624855e-03 9.741599e-02 1.937422e-01 2.848730e-01 3.682282e-01 4.411029e-01 5.006797e-01 5.440898e-01 5.685419e-01 5.715275e-01 5.511050e-01 5.062460e-01 4.371974e-01 3.457882e-01 2.355921e-01 1.118600e-01 -1.881942e-02 -1.491211e-01 -2.717408e-01 -3.801497e-01 -4.691904e-01 -5.354104e-01 -5.771162e-01 -5.942006e-01 -5.878295e-01 -5.669320e-01 -5.196752e-01 -4.564238e-01 -3.801786e-01 -2.938598e-01 -2.002459e-01 -1.019666e-01 -1.532589e-03 9.861320e-02 1.960335e-01 2.882358e-01 3.726229e-01 4.464655e-01 5.069125e-01 5.510515e-01 5.760376e-01 5.793024e-01 5.588438e-01 5.135813e-01 4.437296e-01 3.511180e-01 2.393619e-01 1.137986e-01 -1.885737e-02 -1.511320e-01 -2.755723e-01 -3.855240e-01 -4.757442e-01 -5.427412e-01 -5.848237e-01 -6.019180e-01 -5.952429e-01 -5.669320e-01 -5.196752e-01 -4.564238e-01 -3.801786e-01 -2.938598e-01 -2.002459e-01 -1.019666e-01 -1.532591e-03 9.861320e-02 1.960335e-01 2.882358e-01 3.726229e-01 4.464655e-01 5.069125e-01 5.510515e-01 5.760376e-01 5.793024e-01 5.588438e-01 5.135813e-01 4.437296e-01 3.511180e-01 2.393619e-01 1.137986e-01 -1.885737e-02 -1.511320e-01 -2.755723e-01 -3.855240e-01 -4.757442e-01 -5.427412e-01 -5.848237e-01 -6.019180e-01 -5.952429e-01 -5.600754e-01 -5.135679e-01 -4.512045e-01 -3.759421e-01 -2.906667e-01 -1.981325e-01 -1.009523e-01 -1.624853e-03 9.741598e-02 1.937422e-01 2.848730e-01 3.682282e-01 4.411029e-01 5.006797e-01 5.440898e-01 5.685419e-01 5.715275e-01 5.511050e-01 5.062460e-01 4.371974e-01 3.457882e-01 2.355921e-01 1.118600e-01 -1.881941e-02 -1.491211e-01 -2.717408e-01 -3.801497e-01 -4.691904e-01 -5.354104e-01 -5.771162e-01 -5.942006e-01 -5.878295e-01 -5.467659e-01 -5.017037e-01 -4.410587e-01 -3.677019e-01 -2.844534e-01 -1.940189e-01 -9.897758e-02 -1.804356e-03 9.508573e-02 1.892834e-01 2.783317e-01 3.596842e-01 4.306840e-01 4.885793e-01 5.305865e-01 5.540170e-01 5.564771e-01 5.361407e-01 4.920776e-01 4.245937e-01 3.355158e-01 2.283350e-01 1.081358e-01 -1.873428e-02 -1.452340e-01 -2.643425e-01 -3.697706e-01 -4.565254e-01 -5.212319e-01 -5.621954e-01 -5.792466e-01 -5.734514e-01 -5.277686e-01 -4.847485e-01 -4.265437e-01 -3.559027e-01 -2.755501e-01 -1.881215e-01 -9.614566e-02 -2.061441e-03 9.174507e-02 1.828936e-01 2.689635e-01 3.474580e-01 4.157907e-01 4.713040e-01 5.113354e-01 5.333415e-01 5.350891e-01 5.149114e-01 4.720123e-01 4.067753e-01 3.210180e-01 2.181124e-01 1.029070e-01 -1.858664e-02 -1.397212e-01 -2.538686e-01 -3.550731e-01 -4.385738e-01 -5.011094e-01 -5.409890e-01 -5.579617e-01 -5.529567e-01 -5.041331e-01 -4.636194e-01 -4.084296e-01 -3.411602e-01 -2.644157e-01 -1.807413e-01 -9.260021e-02 -2.382772e-03 8.756467e-02 1.749016e-01 2.572556e-01 3.321957e-01 3.972245e-01 4.498037e-01 4.874207e-01 5.077097e-01 5.086312e-01 4.887086e-01 4.473017e-01 3.848803e-01 3.032425e-01 2.056090e-01 9.653890e-02 -1.836178e-02 -1.329180e-01 -2.409725e-01 -3.369719e-01 -4.164390e-01 -4.762580e-01 -5.147513e-01 -5.315768e-01 -5.275037e-01 -4.770963e-01 -4.394028e-01 -3.876332e-01 -3.242106e-01 -2.516000e-01 -1.722399e-01 -8.851402e-02 -2.752305e-03 8.274941e-02 1.657011e-01 2.437908e-01 3.146661e-01 3.759356e-01 4.251983e-01 4.601123e-01 4.785107e-01 4.785679e-01 4.590129e-01 4.193702e-01 3.601946e-01 2.832516e-01 1.915857e-01 8.943160e-02 -1.805250e-02 -1.252092e-01 -2.263977e-01 -3.165084e-01 -3.913830e-01 -4.480753e-01 -4.849337e-01 -5.015252e-01 -4.984492e-01 -4.479798e-01 -4.132672e-01 -3.651461e-01 -3.058538e-01 -2.377028e-01 -1.630128e-01 -8.407642e-02 -3.152661e-03 7.752334e-02 1.557221e-01 2.292022e-01 2.957016e-01 3.529461e-01 3.986845e-01 4.307573e-01 4.472063e-01 4.464267e-01 4.273552e-01 3.896774e-01 3.340243e-01 2.621150e-01 1.768014e-01 8.197710e-02 -1.766339e-02 -1.169951e-01 -2.109084e-01 -2.947537e-01 -3.647083e-01 -4.180124e-01 -4.530538e-01 -4.693168e-01 -4.672331e-01 -4.180962e-01 -3.863817e-01 -3.419672e-01 -2.869000e-01 -2.233345e-01 -1.534637e-01 -7.948105e-02 -3.566153e-03 7.211499e-02 1.454019e-01 2.141321e-01 2.761413e-01 3.292801e-01 3.714521e-01 4.006832e-01 4.152236e-01 4.136842e-01 3.952002e-01 3.596059e-01 3.075942e-01 2.408259e-01 1.619532e-01 7.452821e-02 -1.721107e-02 -1.086607e-01 -1.952310e-01 -2.727258e-01 -3.376589e-01 -3.874644e-01 -4.205816e-01 -4.364260e-01 -4.352737e-01 -3.886734e-01 -3.598494e-01 -3.190458e-01 -2.681244e-01 -2.090818e-01 -1.439820e-01 -7.491514e-02 -3.975902e-03 6.674484e-02 1.351614e-01 1.991954e-01 2.567846e-01 3.059056e-01 3.446162e-01 3.711225e-01 3.838735e-01 3.816818e-01 3.638638e-01 3.303839e-01 2.819811e-01 2.202486e-01 1.476405e-01 6.738171e-02 -1.672089e-02 -1.005525e-01 -1.800117e-01 -2.513310e-01 -3.113476e-01 -3.576884e-01 -3.888539e-01 -4.042068e-01 -4.038855e-01 -3.608020e-01 -3.346595e-01 -2.972404e-01 -2.502326e-01 -1.954817e-01 -1.349256e-01 -7.055124e-02 -4.366493e-03 6.161544e-02 1.253863e-01 1.849534e-01 2.383560e-01 2.836936e-01 3.191707e-01 3.431622e-01 3.542991e-01 3.515755e-01 3.344663e-01 3.030447e-01 2.580799e-01 2.010932e-01 1.343499e-01 6.077330e-02 -1.622212e-02 -9.296396e-02 -1.657927e-01 -2.313312e-01 -2.867154e-01 -3.297566e-01 -3.590220e-01 -3.738372e-01 -3.742248e-01 -3.354072e-01 -3.116592e-01 -2.772929e-01 -2.338391e-01 -1.830045e-01 -1.266094e-01 -6.654150e-02 -4.724500e-03 5.690502e-02 1.164150e-01 1.718960e-01 2.214839e-01 2.633931e-01 2.959626e-01 3.177184e-01 3.274527e-01 3.243161e-01 3.079169e-01 2.784156e-01 2.365986e-01 1.839147e-01 1.224571e-01 5.488096e-02 -1.574345e-02 -8.612985e-02 -1.530044e-01 -2.133331e-01 -2.645175e-01 -3.045379e-01 -3.320291e-01 -3.462939e-01 -3.472611e-01 -3.132401e-01 -2.915439e-01 -2.598177e-01 -2.194567e-01 -1.720454e-01 -1.192987e-01 -6.301466e-02 -5.038688e-03 5.276395e-02 1.085323e-01 1.604335e-01 2.066914e-01 2.456226e-01 2.756838e-01 2.955314e-01 3.040937e-01 3.006515e-01 2.849212e-01 2.571300e-01 2.180717e-01 1.691270e-01 1.122386e-01 4.983289e-02 -1.531005e-02 -8.022829e-02 -1.419721e-01 -1.977969e-01 -2.453316e-01 -2.827041e-01 -3.086138e-01 -3.223514e-01 -3.237727e-01 -2.948849e-01 -2.748604e-01 -2.453026e-01 -2.074955e-01 -1.629222e-01 -1.132084e-01 -6.007505e-02 -5.300053e-03 4.931384e-02 1.019678e-01 1.508955e-01 1.943957e-01 2.308713e-01 2.588764e-01 2.771744e-01 2.848030e-01 2.811461e-01 2.660034e-01 2.396516e-01 2.028849e-01 1.570243e-01 1.038882e-01 4.571721e-02 -1.494207e-02 -7.538749e-02 -1.329289e-01 -1.850548e-01 -2.295788e-01 -2.647513e-01 -2.893285e-01 -3.025966e-01 -3.043576e-01 -2.807748e-01 -2.620183e-01 -2.341165e-01 -1.982683e-01 -1.558786e-01 -1.085035e-01 -5.780325e-02 -5.501734e-03 4.664843e-02 9.689810e-02 1.435340e-01 1.849141e-01 2.195083e-01 2.459459e-01 2.630712e-01 2.700045e-01 2.662058e-01 2.515355e-01 2.263043e-01 1.913034e-01 1.478063e-01 9.753555e-02 4.259158e-02 -1.465449e-02 -7.169489e-02 -1.260339e-01 -1.753349e-01 -2.175514e-01 -2.510282e-01 -2.745671e-01 -2.874542e-01 -2.894538e-01 -2.712116e-01 -2.533062e-01 -2.265211e-01 -1.919984e-01 -1.510896e-01 -1.053032e-01 -5.625752e-02 -5.638781e-03 4.483531e-02 9.345041e-02 1.385301e-01 1.784731e-01 2.117952e-01 2.371768e-01 2.535166e-01 2.599897e-01 2.561065e-01 2.417664e-01 2.173014e-01 1.834993e-01 1.416003e-01 9.326228e-02 4.049155e-02 -1.445758e-02 -6.920653e-02 -1.213887e-01 -1.687843e-01 -2.094404e-01 -2.417658e-01 -2.645940e-01 -2.772129e-01 -2.793633e-01 -2.663847e-01 -2.489061e-01 -2.226831e-01 -1.888286e-01 -1.486676e-01 -1.036843e-01 -5.547544e-02 -5.708088e-03 4.391809e-02 9.170659e-02 1.359999e-01 1.752175e-01 2.078984e-01 2.327489e-01 2.486950e-01 2.549393e-01 2.510168e-01 2.368465e-01 2.127704e-01 1.795739e-01 1.384804e-01 9.111513e-02 3.943709e-02 -1.435764e-02 -6.795496e-02 -1.190527e-01 -1.654893e-01 -2.053588e-01 -2.371023e-01 -2.595698e-01 -2.720503e-01 -2.742733e-01 -2.712117e-01 -2.533062e-01 -2.265211e-01 -1.919984e-01 -1.510896e-01 -1.053032e-01 -5.625752e-02 -5.638779e-03 4.483530e-02 9.345041e-02 1.385301e-01 1.784731e-01 2.117952e-01 2.371768e-01 2.535166e-01 2.599897e-01 2.561065e-01 2.417664e-01 2.173014e-01 1.834993e-01 1.416003e-01 9.326229e-02 4.049154e-02 -1.445758e-02 -6.920653e-02 -1.213887e-01 -1.687843e-01 -2.094404e-01 -2.417658e-01 -2.645940e-01 -2.772129e-01 -2.793633e-01 -2.762958e-01 -2.579314e-01 -2.305481e-01 -1.953187e-01 -1.536231e-01 -1.069948e-01 -5.707383e-02 -5.565807e-03 4.579387e-02 9.527309e-02 1.411766e-01 1.818819e-01 2.158808e-01 2.418267e-01 2.585891e-01 2.653133e-01 2.614820e-01 2.469729e-01 2.221054e-01 1.876680e-01 1.449181e-01 9.554784e-02 4.161406e-02 -1.456564e-02 -7.054251e-02 -1.238797e-01 -1.722940e-01 -2.137818e-01 -2.467178e-01 -2.699191e-01 -2.826735e-01 -2.847357e-01 -2.863770e-01 -2.670961e-01 -2.385227e-01 -2.018904e-01 -1.586354e-01 -1.103404e-01 -5.868799e-02 -5.421281e-03 4.768963e-02 9.887838e-02 1.464129e-01 1.886296e-01 2.239726e-01 2.510419e-01 2.686487e-01 2.758789e-01 2.721591e-01 2.573223e-01 2.316617e-01 1.959664e-01 1.515267e-01 1.001029e-01 4.385287e-02 -1.477903e-02 -7.320286e-02 -1.288404e-01 -1.792814e-01 -2.224210e-01 -2.565660e-01 -2.805017e-01 -2.935173e-01 -2.953963e-01 -3.012718e-01 -2.806217e-01 -2.502797e-01 -2.115709e-01 -1.660136e-01 -1.152626e-01 -6.106193e-02 -5.208378e-03 5.047874e-02 1.041840e-01 1.541229e-01 1.985717e-01 2.359056e-01 2.646456e-01 2.835163e-01 2.915135e-01 2.879792e-01 2.726766e-01 2.458570e-01 2.083074e-01 1.613650e-01 1.068905e-01 4.719301e-02 -1.509185e-02 -7.716089e-02 -1.362225e-01 -1.896745e-01 -2.352607e-01 -2.711877e-01 -2.961955e-01 -3.095786e-01 -3.111664e-01 -3.206843e-01 -2.982223e-01 -2.655578e-01 -2.241357e-01 -1.755812e-01 -1.216409e-01 -6.413659e-02 -4.931899e-03 5.409281e-02 1.110616e-01 1.641239e-01 2.114806e-01 2.514183e-01 2.823554e-01 3.029020e-01 3.119342e-01 3.086788e-01 2.928025e-01 2.644959e-01 2.245375e-01 1.743223e-01 1.158419e-01 5.160594e-02 -1.549406e-02 -8.236826e-02 -1.459379e-01 -2.033444e-01 -2.521301e-01 -2.903718e-01 -3.167535e-01 -3.305823e-01 -3.317539e-01 -3.441834e-01 -3.194870e-01 -2.839847e-01 -2.392679e-01 -1.870903e-01 -1.293069e-01 -6.782967e-02 -4.598748e-03 5.843643e-02 1.193311e-01 1.761596e-01 2.270347e-01 2.701379e-01 3.037640e-01 3.263831e-01 3.367220e-01 3.338612e-01 3.173420e-01 2.872718e-01 2.444103e-01 1.902172e-01 1.268419e-01 5.704213e-02 -1.597039e-02 -8.874515e-02 -1.578424e-01 -2.200820e-01 -2.727577e-01 -3.137888e-01 -3.417977e-01 -3.561152e-01 -3.567273e-01 -3.711784e-01 -3.438599e-01 -3.050627e-01 -2.565476e-01 -2.002149e-01 -1.380401e-01 -7.203383e-02 -4.218037e-03 6.338477e-02 1.287572e-01 1.898925e-01 2.448072e-01 2.915652e-01 3.283201e-01 3.533795e-01 3.652929e-01 3.629636e-01 3.457771e-01 3.137319e-01 2.675541e-01 2.087699e-01 1.397090e-01 6.342124e-02 -1.649924e-02 -9.616872e-02 -1.717133e-01 -2.395690e-01 -2.967362e-01 -3.409544e-01 -3.707829e-01 -3.855924e-01 -3.854858e-01 -4.008974e-01 -3.706245e-01 -3.281572e-01 -2.754447e-01 -2.145462e-01 -1.475657e-01 -7.661577e-02 -3.801327e-03 6.878231e-02 1.390450e-01 2.048981e-01 2.642575e-01 3.150619e-01 3.553110e-01 3.831305e-01 3.968689e-01 3.952235e-01 3.773929e-01 3.432390e-01 2.934356e-01 2.295714e-01 1.541730e-01 7.062047e-02 -1.705249e-02 -1.044605e-01 -1.872272e-01 -2.613467e-01 -3.234872e-01 -3.711918e-01 -4.029610e-01 -4.182249e-01 -4.172329e-01 -4.323747e-01 -3.988961e-01 -3.524936e-01 -2.953178e-01 -2.295934e-01 -1.575553e-01 -8.141682e-02 -3.362615e-03 7.444322e-02 1.498419e-01 2.206655e-01 2.847302e-01 3.398465e-01 3.838529e-01 4.146809e-01 4.304584e-01 4.296523e-01 4.112462e-01 3.749377e-01 3.213262e-01 2.520536e-01 1.698521e-01 7.846164e-02 -1.759651e-02 -1.133762e-01 -2.039389e-01 -2.847882e-01 -3.522294e-01 -4.036001e-01 -4.373516e-01 -4.529958e-01 -4.509572e-01 -4.644547e-01 -4.276284e-01 -3.771655e-01 -3.154230e-01 -2.447914e-01 -1.676328e-01 -8.625592e-02 -2.918240e-03 8.015468e-02 1.607426e-01 2.366046e-01 3.054624e-01 3.650010e-01 4.128966e-01 4.468811e-01 4.648508e-01 4.650248e-01 4.461494e-01 4.077329e-01 3.502780e-01 2.754659e-01 1.862339e-01 8.669928e-02 -1.809569e-02 -1.226002e-01 -2.212694e-01 -3.090814e-01 -3.819606e-01 -4.370381e-01 -4.727300e-01 -4.886529e-01 -4.854318e-01 -4.958181e-01 -4.556407e-01 -4.011607e-01 -3.349367e-01 -2.595184e-01 -1.773864e-01 -9.093548e-02 -2.486397e-03 8.568342e-02 1.713016e-01 2.520638e-01 3.256056e-01 3.894947e-01 4.412515e-01 4.784111e-01 4.986372e-01 4.998943e-01 4.806788e-01 4.402923e-01 3.791213e-01 2.988686e-01 2.026672e-01 9.501268e-02 -1.851835e-02 -1.317495e-01 -2.385080e-01 -3.332324e-01 -4.114634e-01 -4.701345e-01 -5.076430e-01 -5.237302e-01 -5.192385e-01 -5.250361e-01 -4.816681e-01 -4.234038e-01 -3.529905e-01 -2.731228e-01 -1.863865e-01 -9.525009e-02 -2.086346e-03 9.078595e-02 1.810530e-01 2.663577e-01 3.442617e-01 4.122280e-01 4.676342e-01 5.078318e-01 5.302623e-01 5.326426e-01 5.132204e-01 4.710845e-01 4.064928e-01 3.211522e-01 2.183716e-01 1.030071e-01 -1.884380e-02 -1.403887e-01 -2.548360e-01 -3.560970e-01 -4.393450e-01 -5.013345e-01 -5.404611e-01 -5.566024e-01 -5.508240e-01 -5.506537e-01 -5.044337e-01 -4.428187e-01 -3.687214e-01 -2.849606e-01 -1.942102e-01 -9.899803e-02 -1.737392e-03 9.522228e-02 1.895361e-01 2.788061e-01 3.605337e-01 4.320940e-01 4.907418e-01 5.336670e-01 5.581129e-01 5.615711e-01 5.420586e-01 4.984615e-01 4.309074e-01 3.410929e-01 2.324745e-01 1.102297e-01 -1.906783e-02 -1.480568e-01 -2.693732e-01 -3.764451e-01 -4.641158e-01 -5.289887e-01 -5.694719e-01 -5.855800e-01 -5.785903e-01 -5.712955e-01 -5.227404e-01 -4.584036e-01 -3.813306e-01 -2.944383e-01 -2.004689e-01 -1.019945e-01 -1.457425e-03 9.877178e-02 1.963268e-01 2.887801e-01 3.735881e-01 4.480572e-01 5.093454e-01 5.545124e-01 5.806393e-01 5.850310e-01 5.655098e-01 5.207877e-01 4.508746e-01 3.574483e-01 2.440787e-01 1.162046e-01 -1.920299e-02 -1.543024e-01 -2.812462e-01 -3.930563e-01 -4.843057e-01 -5.514814e-01 -5.930127e-01 -6.090370e-01 -6.010135e-01 -5.857847e-01 -5.355707e-01 -4.693118e-01 -3.901462e-01 -3.010590e-01 -2.048381e-01 -1.040855e-01 -1.261582e-03 1.012500e-01 2.010698e-01 2.957514e-01 3.827211e-01 4.592390e-01 5.223957e-01 5.691598e-01 5.964974e-01 6.015797e-01 5.820879e-01 5.366051e-01 4.650526e-01 3.690883e-01 2.523584e-01 1.204856e-01 -1.927264e-02 -1.587250e-01 -2.896715e-01 -4.048390e-01 -4.986073e-01 -5.673862e-01 -6.096273e-01 -6.255610e-01 -6.167801e-01 -5.932581e-01 -5.421820e-01 -4.749279e-01 -3.946819e-01 -3.044634e-01 -2.070840e-01 -1.051600e-01 -1.160776e-03 1.025239e-01 2.035085e-01 2.993374e-01 3.874220e-01 4.649989e-01 5.291242e-01 5.767197e-01 6.046918e-01 6.101418e-01 5.906767e-01 5.448113e-01 4.724185e-01 3.751444e-01 2.566730e-01 1.227220e-01 -1.930063e-02 -1.610195e-01 -2.940486e-01 -4.109586e-01 -5.060279e-01 -5.756288e-01 -6.182270e-01 -6.341032e-01 -6.249213e-01 -5.932581e-01 -5.421820e-01 -4.749279e-01 -3.946819e-01 -3.044634e-01 -2.070840e-01 -1.051600e-01 -1.160773e-03 1.025239e-01 2.035085e-01 2.993374e-01 3.874220e-01 4.649989e-01 5.291242e-01 5.767197e-01 6.046918e-01 6.101418e-01 5.906767e-01 5.448113e-01 4.724185e-01 3.751444e-01 2.566730e-01 1.227220e-01 -1.930063e-02 -1.610195e-01 -2.940486e-01 -4.109586e-01 -5.060279e-01 -5.756288e-01 -6.182270e-01 -6.341032e-01 -6.249213e-01 -5.857847e-01 -5.355707e-01 -4.693117e-01 -3.901462e-01 -3.010590e-01 -2.048381e-01 -1.040855e-01 -1.261584e-03 1.012500e-01 2.010698e-01 2.957514e-01 3.827211e-01 4.592390e-01 5.223957e-01 5.691598e-01 5.964974e-01 6.015797e-01 5.820879e-01 5.366051e-01 4.650526e-01 3.690883e-01 2.523584e-01 1.204856e-01 -1.927264e-02 -1.587250e-01 -2.896715e-01 -4.048390e-01 -4.986073e-01 -5.673861e-01 -6.096273e-01 -6.255610e-01 -6.167801e-01 -5.712955e-01 -5.227404e-01 -4.584036e-01 -3.813306e-01 -2.944383e-01 -2.004689e-01 -1.019945e-01 -1.457423e-03 9.877177e-02 1.963268e-01 2.887801e-01 3.735881e-01 4.480572e-01 5.093454e-01 5.545124e-01 5.806393e-01 5.850310e-01 5.655098e-01 5.207877e-01 4.508746e-01 3.574483e-01 2.440787e-01 1.162046e-01 -1.920299e-02 -1.543024e-01 -2.812462e-01 -3.930563e-01 -4.843057e-01 -5.514814e-01 -5.930127e-01 -6.090370e-01 -6.010135e-01 -5.506537e-01 -5.044337e-01 -4.428187e-01 -3.687214e-01 -2.849606e-01 -1.942102e-01 -9.899803e-02 -1.737394e-03 9.522228e-02 1.895361e-01 2.788061e-01 3.605337e-01 4.320940e-01 4.907418e-01 5.336670e-01 5.581129e-01 5.615711e-01 5.420586e-01 4.984615e-01 4.309074e-01 3.410929e-01 2.324745e-01 1.102297e-01 -1.906783e-02 -1.480568e-01 -2.693732e-01 -3.764451e-01 -4.641158e-01 -5.289887e-01 -5.694719e-01 -5.855800e-01 -5.785903e-01 -5.250361e-01 -4.816681e-01 -4.234038e-01 -3.529905e-01 -2.731228e-01 -1.863865e-01 -9.525009e-02 -2.086344e-03 9.078595e-02 1.810530e-01 2.663577e-01 3.442617e-01 4.122280e-01 4.676342e-01 5.078318e-01 5.302623e-01 5.326426e-01 5.132204e-01 4.710845e-01 4.064928e-01 3.211522e-01 2.183716e-01 1.030071e-01 -1.884380e-02 -1.403887e-01 -2.548360e-01 -3.560970e-01 -4.393450e-01 -5.013345e-01 -5.404611e-01 -5.566024e-01 -5.508240e-01 -4.958181e-01 -4.556408e-01 -4.011607e-01 -3.349367e-01 -2.595184e-01 -1.773864e-01 -9.093548e-02 -2.486399e-03 8.568342e-02 1.713016e-01 2.520638e-01 3.256056e-01 3.894947e-01 4.412515e-01 4.784111e-01 4.986372e-01 4.998943e-01 4.806788e-01 4.402923e-01 3.791213e-01 2.988686e-01 2.026672e-01 9.501268e-02 -1.851835e-02 -1.317495e-01 -2.385080e-01 -3.332324e-01 -4.114634e-01 -4.701345e-01 -5.076430e-01 -5.237302e-01 -5.192385e-01 -4.644547e-01 -4.276283e-01 -3.771655e-01 -3.154230e-01 -2.447914e-01 -1.676328e-01 -8.625592e-02 -2.918238e-03 8.015468e-02 1.607426e-01 2.366046e-01 3.054624e-01 3.650010e-01 4.128966e-01 4.468811e-01 4.648508e-01 4.650248e-01 4.461494e-01 4.077329e-01 3.502780e-01 2.754659e-01 1.862339e-01 8.669928e-02 -1.809569e-02 -1.226002e-01 -2.212694e-01 -3.090814e-01 -3.819606e-01 -4.370381e-01 -4.727300e-01 -4.886530e-01 -4.854318e-01 -4.323747e-01 -3.988961e-01 -3.524936e-01 -2.953178e-01 -2.295934e-01 -1.575553e-01 -8.141682e-02 -3.362617e-03 7.444322e-02 1.498419e-01 2.206655e-01 2.847302e-01 3.398465e-01 3.838529e-01 4.146809e-01 4.304584e-01 4.296523e-01 4.112462e-01 3.749377e-01 3.213262e-01 2.520536e-01 1.698520e-01 7.846164e-02 -1.759651e-02 -1.133762e-01 -2.039389e-01 -2.847882e-01 -3.522294e-01 -4.036001e-01 -4.373516e-01 -4.529958e-01 -4.509572e-01 -4.008974e-01 -3.706245e-01 -3.281572e-01 -2.754447e-01 -2.145462e-01 -1.475657e-01 -7.661577e-02 -3.801325e-03 6.878231e-02 1.390450e-01 2.048981e-01 2.642575e-01 3.150619e-01 3.553110e-01 3.831305e-01 3.968689e-01 3.952235e-01 3.773929e-01 3.432390e-01 2.934356e-01 2.295714e-01 1.541730e-01 7.062047e-02 -1.705249e-02 -1.044605e-01 -1.872272e-01 -2.613467e-01 -3.234872e-01 -3.711918e-01 -4.029610e-01 -4.182249e-01 -4.172329e-01 -3.711784e-01 -3.438599e-01 -3.050627e-01 -2.565476e-01 -2.002149e-01 -1.380401e-01 -7.203382e-02 -4.218040e-03 6.338477e-02 1.287572e-01 1.898925e-01 2.448071e-01 2.915652e-01 3.283201e-01 3.533795e-01 3.652929e-01 3.629637e-01 3.457771e-01 3.137319e-01 2.675541e-01 2.087699e-01 1.397090e-01 6.342124e-02 -1.649925e-02 -9.616872e-02 -1.717133e-01 -2.395690e-01 -2.967362e-01 -3.409544e-01 -3.707829e-01 -3.855924e-01 -3.854858e-01 -3.441834e-01 -3.194870e-01 -2.839847e-01 -2.392679e-01 -1.870903e-01 -1.293069e-01 -6.782967e-02 -4.598746e-03 5.843643e-02 1.193311e-01 1.761596e-01 2.270347e-01 2.701379e-01 3.037640e-01 3.263831e-01 3.367220e-01 3.338612e-01 3.173420e-01 2.872718e-01 2.444103e-01 1.902172e-01 1.268419e-01 5.704213e-02 -1.597038e-02 -8.874515e-02 -1.578424e-01 -2.200820e-01 -2.727577e-01 -3.137888e-01 -3.417977e-01 -3.561152e-01 -3.567273e-01 -3.206843e-01 -2.982223e-01 -2.655578e-01 -2.241357e-01 -1.755812e-01 -1.216409e-01 -6.413659e-02 -4.931901e-03 5.409281e-02 1.110616e-01 1.641239e-01 2.114806e-01 2.514183e-01 2.823554e-01 3.029020e-01 3.119342e-01 3.086788e-01 2.928025e-01 2.644959e-01 2.245375e-01 1.743223e-01 1.158419e-01 5.160594e-02 -1.549406e-02 -8.236826e-02 -1.459379e-01 -2.033444e-01 -2.521301e-01 -2.903718e-01 -3.167535e-01 -3.305823e-01 -3.317539e-01 -3.012718e-01 -2.806217e-01 -2.502797e-01 -2.115709e-01 -1.660137e-01 -1.152626e-01 -6.106193e-02 -5.208375e-03 5.047874e-02 1.041840e-01 1.541229e-01 1.985717e-01 2.359056e-01 2.646456e-01 2.835163e-01 2.915135e-01 2.879792e-01 2.726766e-01 2.458570e-01 2.083074e-01 1.613650e-01 1.068905e-01 4.719300e-02 -1.509185e-02 -7.716090e-02 -1.362225e-01 -1.896745e-01 -2.352607e-01 -2.711877e-01 -2.961955e-01 -3.095786e-01 -3.111664e-01 -2.863770e-01 -2.670961e-01 -2.385227e-01 -2.018904e-01 -1.586354e-01 -1.103404e-01 -5.868799e-02 -5.421284e-03 4.768963e-02 9.887838e-02 1.464129e-01 1.886296e-01 2.239726e-01 2.510419e-01 2.686487e-01 2.758789e-01 2.721591e-01 2.573223e-01 2.316617e-01 1.959664e-01 1.515267e-01 1.001029e-01 4.385287e-02 -1.477903e-02 -7.320285e-02 -1.288405e-01 -1.792814e-01 -2.224210e-01 -2.565660e-01 -2.805017e-01 -2.935173e-01 -2.953963e-01 -2.762958e-01 -2.579314e-01 -2.305481e-01 -1.953187e-01 -1.536231e-01 -1.069948e-01 -5.707383e-02 -5.565804e-03 4.579387e-02 9.527309e-02 1.411766e-01 1.818819e-01 2.158808e-01 2.418267e-01 2.585891e-01 2.653133e-01 2.614820e-01 2.469729e-01 2.221054e-01 1.876680e-01 1.449181e-01 9.554784e-02 4.161406e-02 -1.456563e-02 -7.054251e-02 -1.238797e-01 -1.722940e-01 -2.137818e-01 -2.467178e-01 -2.699191e-01 -2.826735e-01 -2.847357e-01 -2.712116e-01 -2.533062e-01 -2.265211e-01 -1.919984e-01 -1.510896e-01 -1.053032e-01 -5.625752e-02 -5.638781e-03 4.483531e-02 9.345041e-02 1.385301e-01 1.784731e-01 2.117952e-01 2.371768e-01 2.535166e-01 2.599897e-01 2.561065e-01 2.417664e-01 2.173014e-01 1.834993e-01 1.416003e-01 9.326228e-02 4.049155e-02 -1.445758e-02 -6.920653e-02 -1.213887e-01 -1.687843e-01 -2.094404e-01 -2.417658e-01 -2.645940e-01 -2.772129e-01 -2.793633e-01 -2.807748e-01 -2.620183e-01 -2.341165e-01 -1.982683e-01 -1.558786e-01 -1.085035e-01 -5.780325e-02 -5.501737e-03 4.664843e-02 9.689809e-02 1.435340e-01 1.849141e-01 2.195083e-01 2.459459e-01 2.630712e-01 2.700045e-01 2.662058e-01 2.515355e-01 2.263043e-01 1.913034e-01 1.478063e-01 9.753555e-02 4.259158e-02 -1.465449e-02 -7.169489e-02 -1.260339e-01 -1.753349e-01 -2.175514e-01 -2.510282e-01 -2.745671e-01 -2.874542e-01 -2.894538e-01 -2.863770e-01 -2.670961e-01 -2.385227e-01 -2.018904e-01 -1.586354e-01 -1.103404e-01 -5.868799e-02 -5.421281e-03 4.768963e-02 9.887838e-02 1.464129e-01 1.886296e-01 2.239726e-01 2.510419e-01 2.686487e-01 2.758789e-01 2.721591e-01 2.573223e-01 2.316617e-01 1.959664e-01 1.515267e-01 1.001029e-01 4.385287e-02 -1.477903e-02 -7.320286e-02 -1.288404e-01 -1.792814e-01 -2.224210e-01 -2.565660e-01 -2.805017e-01 -2.935173e-01 -2.953963e-01 -2.975023e-01 -2.771714e-01 -2.472585e-01 -2.090670e-01 -1.640946e-01 -1.139764e-01 -6.043871e-02 -5.261822e-03 4.975066e-02 1.027990e-01 1.521147e-01 1.959918e-01 2.328245e-01 2.611540e-01 2.797259e-01 2.875563e-01 2.840049e-01 2.688478e-01 2.423421e-01 2.052706e-01 1.589560e-01 1.052331e-01 4.637503e-02 -1.502606e-02 -7.621438e-02 -1.344454e-01 -1.871597e-01 -2.321358e-01 -2.676051e-01 -2.923210e-01 -3.055811e-01 -3.072084e-01 -3.139817e-01 -2.920739e-01 -2.601632e-01 -2.196568e-01 -1.721432e-01 -1.193335e-01 -6.301685e-02 -5.026249e-03 5.278731e-02 1.085771e-01 1.605228e-01 2.068577e-01 2.459028e-01 2.761130e-01 2.961355e-01 3.048816e-01 3.016082e-01 2.860028e-01 2.582639e-01 2.191611e-01 1.700616e-01 1.129106e-01 5.015449e-02 -1.539068e-02 -8.071644e-02 -1.428247e-01 -1.989298e-01 -2.466344e-01 -2.840584e-01 -3.099112e-01 -3.235067e-01 -3.247321e-01 -3.355338e-01 -3.115253e-01 -2.769775e-01 -2.334344e-01 -1.826020e-01 -1.262885e-01 -6.636165e-02 -4.719309e-03 5.672984e-02 1.160817e-01 1.714524e-01 2.209984e-01 2.629476e-01 2.956424e-01 3.176005e-01 3.275924e-01 3.247342e-01 3.085903e-01 2.792733e-01 2.375271e-01 1.847723e-01 1.230969e-01 5.517868e-02 -1.586374e-02 -8.667867e-02 -1.539233e-01 -