<VTKFile type="RectilinearGrid">
<RectilinearGrid WholeExtent="0 32 0 32 0 32" GhostLevel="0">
<Piece Extent="0 32 0 32 0 32">
<CellData Scalars="p phase" Vectors="vel">
<DataArray type="Float32" Name="p">
-2.608391e-01 -2.453730e-01 -2.209153e-01 -1.885178e-01 -1.494597e-01 -1.051957e-01 -5.730799e-02 -7.463306e-03 4.262684e-02 9.124339e-02 1.366971e-01 1.773678e-01 2.117480e-01 2.384907e-01 2.564629e-01 2.648022e-01 2.629738e-01 2.508222e-01 2.286129e-01 1.970544e-01 1.572971e-01 1.109009e-01 5.977237e-02 6.072237e-03 -4.789973e-02 -9.983238e-02 -1.475313e-01 -1.890352e-01 -2.227109e-01 -2.473199e-01 -2.620544e-01 -2.665441e-01 -2.657441e-01 -2.498900e-01 -2.249023e-01 -1.918606e-01 -1.520708e-01 -1.070119e-01 -5.828828e-02 -7.586582e-03 4.336288e-02 9.282243e-02 1.390833e-01 1.805039e-01 2.155530e-01 2.428576e-01 2.612570e-01 2.698610e-01 2.681090e-01 2.558257e-01 2.332649e-01 2.011358e-01 1.606039e-01 1.132597e-01 6.105499e-02 6.207108e-03 -4.892078e-02 -1.019534e-01 -1.506375e-01 -1.929634e-01 -2.272637e-01 -2.522807e-01 -2.672026e-01 -2.716677e-01 -2.754639e-01 -2.588358e-01 -2.327942e-01 -1.984745e-01 -1.572352e-01 -1.106034e-01 -6.022675e-02 -7.830821e-03 4.481742e-02 9.594399e-02 1.438019e-01 1.867079e-01 2.230839e-01 2.515053e-01 2.707562e-01 2.798907e-01 2.782970e-01 2.657585e-01 2.425054e-01 2.092472e-01 1.671787e-01 1.179511e-01 6.360610e-02 6.474680e-03 -5.095300e-02 -1.061731e-01 -1.568147e-01 -2.007716e-01 -2.363082e-01 -2.621298e-01 -2.774171e-01 -2.818268e-01 -2.898100e-01 -2.720269e-01 -2.444217e-01 -2.082121e-01 -1.648345e-01 -1.158865e-01 -6.307805e-02 -8.191186e-03 4.695461e-02 1.005333e-01 1.507430e-01 1.958397e-01 2.341772e-01 2.642547e-01 2.847745e-01 2.947073e-01 2.933633e-01 2.804628e-01 2.561982e-01 2.212773e-01 1.769368e-01 1.249171e-01 6.739461e-02 6.870383e-03 -5.397429e-02 -1.124422e-01 -1.659857e-01 -2.123548e-01 -2.497129e-01 -2.767122e-01 -2.925248e-01 -2.968366e-01 -3.084809e-01 -2.891726e-01 -2.595176e-01 -2.208423e-01 -1.746839e-01 -1.227305e-01 -6.677158e-02 -8.659975e-03 4.971908e-02 1.064744e-01 1.597351e-01 2.076802e-01 2.485758e-01 2.808228e-01 3.030157e-01 3.140144e-01 3.130242e-01 2.996787e-01 2.741165e-01 2.370386e-01 1.897338e-01 1.340587e-01 7.236712e-02 7.386819e-03 -5.794569e-02 -1.206750e-01 -1.780182e-01 -2.275351e-01 -2.672582e-01 -2.957724e-01 -3.122429e-01 -3.163986e-01 -3.310428e-01 -3.098582e-01 -2.777044e-01 -2.360404e-01 -1.865250e-01 -1.309536e-01 -7.120904e-02 -9.226113e-03 5.303437e-02 1.136065e-01 1.705394e-01 2.219222e-01 2.659174e-01 3.008070e-01 3.250542e-01 3.373819e-01 3.368629e-01 3.230196e-01 2.959180e-01 2.562445e-01 2.053466e-01 1.452211e-01 7.844015e-02 8.013175e-03 -6.280480e-02 -1.307361e-01 -1.927057e-01 -2.460393e-01 -2.886110e-01 -3.189284e-01 -3.361548e-01 -3.400783e-01 -3.569088e-01 -3.335288e-01 -2.984812e-01 -2.533787e-01 -2.000191e-01 -1.403183e-01 -7.626213e-02 -9.874676e-03 5.680171e-02 1.217205e-01 1.828443e-01 2.381628e-01 2.857223e-01 3.236696e-01 3.503159e-01 3.642221e-01 3.643029e-01 3.499431e-01 3.211159e-01 2.784820e-01 2.234501e-01 1.581771e-01 8.549086e-02 8.734565e-03 -6.845766e-02 -1.424246e-01 -2.097453e-01 -2.674713e-01 -3.132956e-01 -3.456427e-01 -3.636825e-01 -3.672810e-01 -3.853211e-01 -3.594754e-01 -3.212139e-01 -2.723202e-01 -2.147436e-01 -1.505292e-01 -8.177128e-02 -1.058646e-02 6.089960e-02 1.305581e-01 1.962619e-01 2.558971e-01 3.073851e-01 3.487255e-01 3.780608e-01 3.937692e-01 3.945823e-01 3.797233e-01 3.490500e-01 3.031835e-01 2.435926e-01 1.726086e-01 9.334713e-02 9.531374e-03 -7.477014e-02 -1.554570e-01 -2.287141e-01 -2.912852e-01 -3.406649e-01 -3.751939e-01 -3.940607e-01 -3.972294e-01 -4.153427e-01 -3.868306e-01 -3.451339e-01 -2.922184e-01 -2.301924e-01 -1.612338e-01 -8.754633e-02 -1.133781e-02 6.518474e-02 1.398123e-01 2.103299e-01 2.745187e-01 3.301729e-01 3.751377e-01 4.073756e-01 4.250659e-01 4.267376e-01 4.114295e-01 3.788634e-01 3.296044e-01 2.651758e-01 1.880915e-01 1.017789e-01 1.037875e-02 -8.156020e-02 -1.694521e-01 -2.490494e-01 -3.167623e-01 -3.698776e-01 -4.066563e-01 -4.263200e-01 -4.289511e-01 -4.458642e-01 -4.145777e-01 -3.693478e-01 -3.123274e-01 -2.457849e-01 -1.720294e-01 -9.336988e-02 -1.210086e-02 6.949506e-02 1.491344e-01 2.245191e-01 2.933300e-01 3.532356e-01 4.019259e-01 4.371791e-01 4.569668e-01 4.596016e-01 4.439214e-01 4.094934e-01 3.568113e-01 2.874429e-01 2.040862e-01 1.104929e-01 1.124637e-02 -8.859321e-02 -1.839229e-01 -2.700377e-01 -3.430009e-01 -3.998897e-01 -4.388947e-01 -4.592861e-01 -4.612821e-01 -4.756314e-01 -4.415778e-01 -3.928632e-01 -3.318243e-01 -2.608839e-01 -1.824749e-01 -9.900415e-02 -1.284420e-02 7.365508e-02 1.581442e-01 2.382504e-01 3.115620e-01 3.756292e-01 4.279927e-01 4.662493e-01 4.881629e-01 4.918260e-01 4.758665e-01 4.396854e-01 3.836912e-01 3.094848e-01 2.199403e-01 1.191342e-01 1.209877e-02 -9.558269e-02 -1.982789e-01 -2.908207e-01 -3.689254e-01 -4.294687e-01 -4.705837e-01 -4.916028e-01 -4.928927e-01 -5.032982e-01 -4.666190e-01 -4.146318e-01 -3.498451e-01 -2.748232e-01 -1.921110e-01 -1.042015e-01 -1.353433e-02 7.748364e-02 1.664473e-01 2.509199e-01 3.284085e-01 3.963572e-01 4.521696e-01 4.932733e-01 5.172348e-01 5.219332e-01 5.057900e-01 4.680369e-01 4.089893e-01 3.302683e-01 2.349091e-01 1.272964e-01 1.289648e-02 -1.021988e-01 -2.118443e-01 -3.104230e-01 -3.933237e-01 -4.572387e-01 -5.002580e-01 -5.217866e-01 -5.223425e-01 -5.275043e-01 -4.884857e-01 -4.336090e-01 -3.655334e-01 -2.869456e-01 -2.004857e-01 -1.087181e-01 -1.413750e-02 8.080399e-02 1.736568e-01 2.619326e-01 3.430712e-01 4.144265e-01 4.732841e-01 5.169227e-01 5.427330e-01 5.484014e-01 5.321585e-01 4.930770e-01 4.313789e-01 3.486943e-01 2.481964e-01 1.345447e-01 1.359838e-02 -1.080863e-01 -2.238956e-01 -3.278066e-01 -4.149160e-01 -4.817590e-01 -5.263976e-01 -5.483119e-01 -5.481636e-01 -5.469732e-01 -5.060447e-01 -4.488265e-01 -3.780992e-01 -2.966468e-01 -2.071839e-01 -1.123305e-01 -1.462220e-02 8.345503e-02 1.794189e-01 2.707423e-01 3.548135e-01 4.289160e-01 4.902414e-01 5.359487e-01 5.632851e-01 5.697774e-01 5.534967e-01 5.133795e-01 4.495647e-01 3.636833e-01 2.590169e-01 1.404492e-01 1.416516e-02 -1.128921e-01 -2.337175e-01 -3.419520e-01 -4.324538e-01 -5.016353e-01 -5.475431e-01 -5.697258e-01 -5.689687e-01 -5.606196e-01 -5.183375e-01 -4.594688e-01 -3.868794e-01 -3.034209e-01 -2.118593e-01 -1.148518e-01 -1.496170e-02 8.530303e-02 1.834386e-01 2.768923e-01 3.630174e-01 4.390494e-01 5.021145e-01 5.492878e-01 5.777147e-01 5.848080e-01 5.685238e-01 5.276984e-01 4.624084e-01 3.742817e-01 2.666744e-01 1.446288e-01 1.456335e-02 -1.162997e-01 -2.406735e-01 -3.519573e-01 -4.448404e-01 -5.156513e-01 -5.624301e-01 -5.847784e-01 -5.835716e-01 -5.676518e-01 -5.246673e-01 -4.649453e-01 -3.913951e-01 -3.069036e-01 -2.142624e-01 -1.161477e-01 -1.513657e-02 8.625208e-02 1.855040e-01 2.800534e-01 3.672365e-01 4.442640e-01 5.082288e-01 5.561627e-01 5.851583e-01 5.925690e-01 5.762904e-01 5.351060e-01 4.690585e-01 3.797733e-01 2.706443e-01 1.467959e-01 1.476871e-02 -1.180688e-01 -2.442818e-01 -3.571431e-01 -4.512542e-01 -5.229014e-01 -5.701229e-01 -5.925490e-01 -5.911031e-01 -5.676518e-01 -5.246673e-01 -4.649453e-01 -3.913951e-01 -3.069036e-01 -2.142624e-01 -1.161477e-01 -1.513657e-02 8.625208e-02 1.855040e-01 2.800534e-01 3.672365e-01 4.442640e-01 5.082288e-01 5.561627e-01 5.851583e-01 5.925690e-01 5.762904e-01 5.351060e-01 4.690585e-01 3.797733e-01 2.706443e-01 1.467959e-01 1.476871e-02 -1.180688e-01 -2.442818e-01 -3.571431e-01 -4.512542e-01 -5.229014e-01 -5.701229e-01 -5.925490e-01 -5.911031e-01 -5.606196e-01 -5.183375e-01 -4.594688e-01 -3.868794e-01 -3.034209e-01 -2.118593e-01 -1.148518e-01 -1.496170e-02 8.530303e-02 1.834386e-01 2.768923e-01 3.630174e-01 4.390494e-01 5.021145e-01 5.492878e-01 5.777147e-01 5.848080e-01 5.685238e-01 5.276984e-01 4.624084e-01 3.742817e-01 2.666744e-01 1.446288e-01 1.456335e-02 -1.162997e-01 -2.406735e-01 -3.519573e-01 -4.448404e-01 -5.156513e-01 -5.624301e-01 -5.847784e-01 -5.835716e-01 -5.469732e-01 -5.060447e-01 -4.488265e-01 -3.780992e-01 -2.966468e-01 -2.071839e-01 -1.123305e-01 -1.462220e-02 8.345503e-02 1.794189e-01 2.707423e-01 3.548135e-01 4.289160e-01 4.902414e-01 5.359487e-01 5.632851e-01 5.697774e-01 5.534967e-01 5.133795e-01 4.495647e-01 3.636833e-01 2.590169e-01 1.404492e-01 1.416516e-02 -1.128921e-01 -2.337175e-01 -3.419520e-01 -4.324538e-01 -5.016353e-01 -5.475431e-01 -5.697258e-01 -5.689687e-01 -5.275043e-01 -4.884857e-01 -4.336090e-01 -3.655334e-01 -2.869456e-01 -2.004857e-01 -1.087181e-01 -1.413750e-02 8.080399e-02 1.736568e-01 2.619326e-01 3.430712e-01 4.144265e-01 4.732841e-01 5.169227e-01 5.427330e-01 5.484014e-01 5.321585e-01 4.930770e-01 4.313789e-01 3.486943e-01 2.481964e-01 1.345447e-01 1.359838e-02 -1.080863e-01 -2.238956e-01 -3.278066e-01 -4.149160e-01 -4.817590e-01 -5.263976e-01 -5.483119e-01 -5.481636e-01 -5.032982e-01 -4.666190e-01 -4.146318e-01 -3.498451e-01 -2.748232e-01 -1.921110e-01 -1.042015e-01 -1.353433e-02 7.748364e-02 1.664473e-01 2.509199e-01 3.284085e-01 3.963572e-01 4.521696e-01 4.932733e-01 5.172348e-01 5.219332e-01 5.057900e-01 4.680369e-01 4.089893e-01 3.302683e-01 2.349091e-01 1.272964e-01 1.289648e-02 -1.021988e-01 -2.118443e-01 -3.104230e-01 -3.933237e-01 -4.572387e-01 -5.002580e-01 -5.217866e-01 -5.223425e-01 -4.756314e-01 -4.415778e-01 -3.928632e-01 -3.318243e-01 -2.608839e-01 -1.824749e-01 -9.900415e-02 -1.284420e-02 7.365508e-02 1.581442e-01 2.382504e-01 3.115620e-01 3.756292e-01 4.279927e-01 4.662493e-01 4.881629e-01 4.918260e-01 4.758665e-01 4.396854e-01 3.836912e-01 3.094848e-01 2.199403e-01 1.191342e-01 1.209877e-02 -9.558269e-02 -1.982789e-01 -2.908207e-01 -3.689254e-01 -4.294687e-01 -4.705837e-01 -4.916028e-01 -4.928927e-01 -4.458642e-01 -4.145777e-01 -3.693477e-01 -3.123274e-01 -2.457849e-01 -1.720294e-01 -9.336988e-02 -1.210086e-02 6.949507e-02 1.491344e-01 2.245191e-01 2.933300e-01 3.532356e-01 4.019259e-01 4.371791e-01 4.569668e-01 4.596016e-01 4.439214e-01 4.094934e-01 3.568113e-01 2.874429e-01 2.040862e-01 1.104929e-01 1.124637e-02 -8.859321e-02 -1.839229e-01 -2.700377e-01 -3.430009e-01 -3.998897e-01 -4.388947e-01 -4.592860e-01 -4.612821e-01 -4.153427e-01 -3.868306e-01 -3.451339e-01 -2.922184e-01 -2.301924e-01 -1.612338e-01 -8.754633e-02 -1.133781e-02 6.518474e-02 1.398123e-01 2.103299e-01 2.745187e-01 3.301729e-01 3.751377e-01 4.073756e-01 4.250659e-01 4.267376e-01 4.114295e-01 3.788634e-01 3.296044e-01 2.651758e-01 1.880915e-01 1.017789e-01 1.037875e-02 -8.156020e-02 -1.694521e-01 -2.490494e-01 -3.167623e-01 -3.698776e-01 -4.066563e-01 -4.263200e-01 -4.289511e-01 -3.853211e-01 -3.594754e-01 -3.212139e-01 -2.723202e-01 -2.147436e-01 -1.505292e-01 -8.177128e-02 -1.058646e-02 6.089960e-02 1.305581e-01 1.962619e-01 2.558971e-01 3.073851e-01 3.487255e-01 3.780608e-01 3.937692e-01 3.945823e-01 3.797233e-01 3.490500e-01 3.031835e-01 2.435926e-01 1.726086e-01 9.334713e-02 9.531373e-03 -7.477014e-02 -1.554570e-01 -2.287141e-01 -2.912852e-01 -3.406649e-01 -3.751939e-01 -3.940607e-01 -3.972294e-01 -3.569088e-01 -3.335288e-01 -2.984812e-01 -2.533787e-01 -2.000191e-01 -1.403183e-01 -7.626213e-02 -9.874676e-03 5.680171e-02 1.217205e-01 1.828443e-01 2.381628e-01 2.857223e-01 3.236696e-01 3.503159e-01 3.642221e-01 3.643029e-01 3.499431e-01 3.211159e-01 2.784820e-01 2.234501e-01 1.581771e-01 8.549086e-02 8.734566e-03 -6.845766e-02 -1.424246e-01 -2.097453e-01 -2.674713e-01 -3.132956e-01 -3.456427e-01 -3.636825e-01 -3.672810e-01 -3.310428e-01 -3.098582e-01 -2.777044e-01 -2.360404e-01 -1.865250e-01 -1.309536e-01 -7.120904e-02 -9.226113e-03 5.303437e-02 1.136065e-01 1.705394e-01 2.219222e-01 2.659174e-01 3.008070e-01 3.250542e-01 3.373819e-01 3.368629e-01 3.230196e-01 2.959180e-01 2.562445e-01 2.053466e-01 1.452211e-01 7.844015e-02 8.013175e-03 -6.280480e-02 -1.307361e-01 -1.927057e-01 -2.460393e-01 -2.886110e-01 -3.189284e-01 -3.361548e-01 -3.400783e-01 -3.084809e-01 -2.891726e-01 -2.595176e-01 -2.208423e-01 -1.746839e-01 -1.227305e-01 -6.677158e-02 -8.659974e-03 4.971908e-02 1.064744e-01 1.597351e-01 2.076802e-01 2.485758e-01 2.808228e-01 3.030157e-01 3.140144e-01 3.130242e-01 2.996787e-01 2.741165e-01 2.370386e-01 1.897338e-01 1.340587e-01 7.236712e-02 7.386819e-03 -5.794569e-02 -1.206750e-01 -1.780182e-01 -2.275351e-01 -2.672582e-01 -2.957724e-01 -3.122429e-01 -3.163986e-01 -2.898100e-01 -2.720269e-01 -2.444217e-01 -2.082121e-01 -1.648345e-01 -1.158865e-01 -6.307805e-02 -8.191187e-03 4.695461e-02 1.005333e-01 1.507430e-01 1.958397e-01 2.341772e-01 2.642547e-01 2.847745e-01 2.947073e-01 2.933633e-01 2.804628e-01 2.561982e-01 2.212773e-01 1.769368e-01 1.249171e-01 6.739461e-02 6.870383e-03 -5.397429e-02 -1.124422e-01 -1.659857e-01 -2.123548e-01 -2.497129e-01 -2.767122e-01 -2.925248e-01 -2.968366e-01 -2.754639e-01 -2.588358e-01 -2.327942e-01 -1.984745e-01 -1.572352e-01 -1.106034e-01 -6.022675e-02 -7.830820e-03 4.481742e-02 9.594399e-02 1.438019e-01 1.867079e-01 2.230839e-01 2.515053e-01 2.707562e-01 2.798907e-01 2.782970e-01 2.657585e-01 2.425054e-01 2.092472e-01 1.671787e-01 1.179511e-01 6.360610e-02 6.474681e-03 -5.095301e-02 -1.061731e-01 -1.568147e-01 -2.007716e-01 -2.363082e-01 -2.621298e-01 -2.774171e-01 -2.818268e-01 -2.657441e-01 -2.498900e-01 -2.249023e-01 -1.918606e-01 -1.520708e-01 -1.070119e-01 -5.828828e-02 -7.586582e-03 4.336288e-02 9.282243e-02 1.390833e-01 1.805039e-01 2.155530e-01 2.428576e-01 2.612570e-01 2.698610e-01 2.681090e-01 2.558257e-01 2.332649e-01 2.011358e-01 1.606039e-01 1.132597e-01 6.105499e-02 6.207108e-03 -4.892078e-02 -1.019534e-01 -1.506375e-01 -1.929634e-01 -2.272637e-01 -2.522807e-01 -2.672026e-01 -2.716677e-01 -2.608391e-01 -2.453730e-01 -2.209153e-01 -1.885178e-01 -1.494597e-01 -1.051957e-01 -5.730799e-02 -7.463305e-03 4.262684e-02 9.124339e-02 1.366971e-01 1.773678e-01 2.117480e-01 2.384907e-01 2.564629e-01 2.648022e-01 2.629738e-01 2.508222e-01 2.286129e-01 1.970544e-01 1.572971e-01 1.109009e-01 5.977237e-02 6.072237e-03 -4.789973e-02 -9.983238e-02 -1.475313e-01 -1.890352e-01 -2.227109e-01 -2.473199e-01 -2.620544e-01 -2.665441e-01 -2.657441e-01 -2.498900e-01 -2.249023e-01 -1.918606e-01 -1.520708e-01 -1.070119e-01 -5.828828e-02 -7.586582e-03 4.336288e-02 9.282243e-02 1.390833e-01 1.805039e-01 2.155530e-01 2.428576e-01 2.612570e-01 2.698610e-01 2.681090e-01 2.558257e-01 2.332649e-01 2.011358e-01 1.606039e-01 1.132597e-01 6.105499e-02 6.207108e-03 -4.892078e-02 -1.019534e-01 -1.506375e-01 -1.929634e-01 -2.272637e-01 -2.522807e-01 -2.672026e-01 -2.716677e-01 -2.709109e-01 -2.546391e-01 -2.290869e-01 -1.953638e-01 -1.548037e-01 -1.089111e-01 -5.931282e-02 -7.715499e-03 4.413179e-02 9.447283e-02 1.415792e-01 1.837879e-01 2.195429e-01 2.474441e-01 2.663011e-01 2.751936e-01 2.735330e-01 2.611208e-01 2.381971e-01 2.054703e-01 1.641207e-01 1.157711e-01 6.242137e-02 6.350455e-03 -5.000955e-02 -1.042135e-01 -1.539441e-01 -1.971398e-01 -2.320964e-01 -2.575371e-01 -2.726470e-01 -2.770753e-01 -2.811580e-01 -2.640516e-01 -2.373756e-01 -2.022993e-01 -1.602123e-01 -1.126689e-01 -6.133980e-02 -7.971042e-03 4.565197e-02 9.773702e-02 1.465176e-01 1.902881e-01 2.274446e-01 2.565327e-01 2.763033e-01 2.857756e-01 2.843041e-01 2.716436e-01 2.480056e-01 2.140955e-01 1.711225e-01 1.207727e-01 6.514299e-02 6.635199e-03 -5.217986e-02 -1.087165e-01 -1.605293e-01 -2.054523e-01 -2.417091e-01 -2.679851e-01 -2.834607e-01 -2.878077e-01 -2.963032e-01 -2.779480e-01 -2.496011e-01 -2.125205e-01 -1.681781e-01 -1.182010e-01 -6.432367e-02 -8.348440e-03 4.788729e-02 1.025398e-01 1.537879e-01 1.998647e-01 2.390959e-01 2.699475e-01 2.910828e-01 3.014304e-01 3.002582e-01 2.872489e-01 2.625683e-01 2.269146e-01 1.815375e-01 1.282171e-01 6.919451e-02 7.057182e-03 -5.541465e-02 -1.154231e-01 -1.703292e-01 -2.178112e-01 -2.559856e-01 -2.834838e-01 -2.994821e-01 -3.036892e-01 -3.160518e-01 -2.960410e-01 -2.654973e-01 -2.257958e-01 -1.785151e-01 -1.253758e-01 -6.819315e-02 -8.839969e-03 5.078161e-02 1.087640e-01 1.632174e-01 2.122974e-01 2.542399e-01 2.874073e-01 3.103480e-01 3.218697e-01 3.211233e-01 3.076921e-01 2.816760e-01 2.437584e-01 1.952386e-01 1.380183e-01 7.453011e-02 7.609541e-03 -5.968170e-02 -1.242604e-01 -1.832291e-01 -2.340585e-01 -2.747257e-01 -3.037951e-01 -3.204427e-01 -3.244315e-01 -3.399727e-01 -3.179155e-01 -2.846840e-01 -2.417969e-01 -1.909611e-01 -1.340084e-01 -7.284821e-02 -9.434471e-03 5.425695e-02 1.162456e-01 1.745632e-01 2.272751e-01 2.725106e-01 3.085077e-01 3.336744e-01 3.466682e-01 3.464919e-01 3.325998e-01 3.050034e-01 2.643589e-01 2.120205e-01 1.500359e-01 8.107451e-02 8.282039e-03 -6.492595e-02 -1.351075e-01 -1.990410e-01 -2.539410e-01 -2.976156e-01 -3.285532e-01 -3.459378e-01 -3.496074e-01 -3.674734e-01 -3.430081e-01 -3.066508e-01 -2.600867e-01 -2.051695e-01 -1.438554e-01 -7.815729e-02 -1.011670e-02 5.821185e-02 1.247704e-01 1.875060e-01 2.443851e-01 2.934182e-01 3.327017e-01 3.604804e-01 3.752343e-01 3.757876e-01 3.614352e-01 3.320733e-01 2.883159e-01 2.315713e-01 1.640540e-01 8.871167e-02 9.060241e-03 -7.105961e-02 -1.477748e-01 -2.174768e-01 -2.770778e-01 -3.241923e-01 -3.572287e-01 -3.753923e-01 -3.786203e-01 -3.977761e-01 -3.705893e-01 -3.307438e-01 -2.801105e-01 -2.207034e-01 -1.546113e-01 -8.395538e-02 -1.086686e-02 6.252050e-02 1.340707e-01 2.016446e-01 2.631058e-01 3.163379e-01 3.592833e-01 3.900055e-01 4.067831e-01 4.082333e-01 3.934611e-01 3.622197e-01 3.150608e-01 2.534418e-01 1.797582e-01 9.727202e-02 9.924695e-03 -7.795110e-02 -1.619831e-01 -2.381175e-01 -3.029241e-01 -3.538057e-01 -3.890922e-01 -4.080277e-01 -4.106755e-01 -4.299035e-01 -3.997537e-01 -3.561608e-01 -3.011938e-01 -2.370348e-01 -1.659086e-01 -9.004421e-02 -1.166032e-02 6.703350e-02 1.438267e-01 2.164967e-01 2.828045e-01 3.405049e-01 3.873788e-01 4.212965e-01 4.403168e-01 4.428259e-01 4.277112e-01 3.945551e-01 3.438247e-01 2.770163e-01 1.967135e-01 1.065203e-01 1.085009e-02 -8.541427e-02 -1.773422e-01 -2.603852e-01 -3.307395e-01 -3.855856e-01 -4.231832e-01 -4.428359e-01 -4.447600e-01 -4.626806e-01 -4.294262e-01 -3.819584e-01 -3.225504e-01 -2.535527e-01 -1.773235e-01 -9.619532e-02 -1.246777e-02 7.158062e-02 1.536717e-01 2.315057e-01 3.027464e-01 3.650224e-01 4.159530e-01 4.532100e-01 4.746219e-01 4.783276e-01 4.629750e-01 4.279515e-01 3.736172e-01 3.014925e-01 2.143482e-01 1.161463e-01 1.180464e-02 -9.320039e-02 -1.933356e-01 -2.835230e-01 -3.595666e-01 -4.184232e-01 -4.582960e-01 -4.785701e-01 -4.796391e-01 -4.947596e-01 -4.583873e-01 -4.070777e-01 -3.433044e-01 -2.695803e-01 -1.883890e-01 -1.021570e-01 -1.325594e-02 7.597629e-02 1.632034e-01 2.460577e-01 3.221150e-01 3.888854e-01 4.438335e-01 4.844361e-01 5.082910e-01 5.132834e-01 4.978100e-01 4.610466e-01 4.032271e-01 3.258791e-01 2.319505e-01 1.257623e-01 1.274988e-02 -1.009960e-01 -2.093176e-01 -3.065934e-01 -3.882321e-01 -4.509767e-01 -4.929915e-01 -5.137626e-01 -5.138788e-01 -5.246745e-01 -4.853244e-01 -4.303887e-01 -3.625286e-01 -2.844055e-01 -1.986149e-01 -1.076655e-01 -1.398904e-02 8.002788e-02 1.720017e-01 2.595082e-01 3.400470e-01 4.110231e-01 4.697596e-01 5.135512e-01 5.397761e-01 5.460734e-01 5.305902e-01 4.922859e-01 4.312566e-01 3.490208e-01 2.486850e-01 1.349119e-01 1.364144e-02 -1.084300e-01 -2.245288e-01 -3.285018e-01 -4.153804e-01 -4.817139e-01 -5.256462e-01 -5.467787e-01 -5.459013e-01 -5.509264e-01 -5.089074e-01 -4.507558e-01 -3.792970e-01 -2.973203e-01 -2.075160e-01 -1.124596e-01 -1.463084e-02 8.354634e-02 1.796522e-01 2.712182e-01 3.556819e-01 4.303602e-01 4.924541e-01 5.390994e-01 5.674779e-01 5.750051e-01 5.595975e-01 5.200087e-01 4.561975e-01 3.696604e-01 2.636364e-01 1.430930e-01 1.443144e-02 -1.150923e-01 -2.381350e-01 -3.480558e-01 -4.395479e-01 -5.089974e-01 -5.545452e-01 -5.759109e-01 -5.740767e-01 -5.720941e-01 -5.278855e-01 -4.671180e-01 -3.927493e-01 -3.076702e-01 -2.146444e-01 -1.162985e-01 -1.514727e-02 8.635868e-02 1.857740e-01 2.805979e-01 3.682210e-01 4.458921e-01 5.107159e-01 5.596996e-01 5.898652e-01 5.984430e-01 5.831551e-01 5.425786e-01 4.765498e-01 3.865372e-01 2.758816e-01 1.497981e-01 1.507299e-02 -1.205655e-01 -2.492925e-01 -3.640581e-01 -4.592784e-01 -5.312142e-01 -5.780158e-01 -5.995105e-01 -5.968460e-01 -5.869597e-01 -5.411934e-01 -4.785769e-01 -4.021604e-01 -3.149051e-01 -2.196248e-01 -1.189804e-01 -1.550938e-02 8.832074e-02 1.900485e-01 2.871522e-01 3.769914e-01 4.567683e-01 5.235211e-01 5.741672e-01 6.056151e-01 6.149624e-01 5.997906e-01 5.585469e-01 4.909753e-01 3.985188e-01 2.845862e-01 1.545671e-01 1.552558e-02 -1.244668e-01 -2.572341e-01 -3.754290e-01 -4.732704e-01 -5.469360e-01 -5.945904e-01 -6.161429e-01 -6.128635e-01 -5.946293e-01 -5.480530e-01 -4.844786e-01 -4.070043e-01 -3.186270e-01 -2.221862e-01 -1.203595e-01 -1.569601e-02 8.932889e-02 1.922460e-01 2.905232e-01 3.815049e-01 4.623696e-01 5.301215e-01 5.816318e-01 6.137500e-01 6.235047e-01 6.084032e-01 5.668241e-01 4.984612e-01 4.047428e-01 2.891116e-01 1.570472e-01 1.575947e-02 -1.264990e-01 -2.613672e-01 -3.813407e-01 -4.805348e-01 -5.550869e-01 -6.031717e-01 -6.247433e-01 -6.211361e-01 -5.946293e-01 -5.480530e-01 -4.844786e-01 -4.070043e-01 -3.186270e-01 -2.221862e-01 -1.203595e-01 -1.569601e-02 8.932889e-02 1.922460e-01 2.905232e-01 3.815049e-01 4.623696e-01 5.301215e-01 5.816318e-01 6.137500e-01 6.235047e-01 6.084032e-01 5.668241e-01 4.984612e-01 4.047428e-01 2.891116e-01 1.570472e-01 1.575947e-02 -1.264990e-01 -2.613672e-01 -3.813407e-01 -4.805348e-01 -5.550869e-01 -6.031717e-01 -6.247433e-01 -6.211361e-01 -5.869597e-01 -5.411934e-01 -4.785769e-01 -4.021604e-01 -3.149051e-01 -2.196248e-01 -1.189804e-01 -1.550938e-02 8.832075e-02 1.900485e-01 2.871522e-01 3.769914e-01 4.567683e-01 5.235211e-01 5.741672e-01 6.056151e-01 6.149624e-01 5.997906e-01 5.585469e-01 4.909753e-01 3.985188e-01 2.845862e-01 1.545671e-01 1.552558e-02 -1.244668e-01 -2.572341e-01 -3.754290e-01 -4.732704e-01 -5.469360e-01 -5.945904e-01 -6.161429e-01 -6.128635e-01 -5.720941e-01 -5.278855e-01 -4.671180e-01 -3.927493e-01 -3.076702e-01 -2.146444e-01 -1.162985e-01 -1.514727e-02 8.635868e-02 1.857740e-01 2.805979e-01 3.682210e-01 4.458921e-01 5.107159e-01 5.596996e-01 5.898652e-01 5.984430e-01 5.831551e-01 5.425786e-01 4.765498e-01 3.865372e-01 2.758816e-01 1.497981e-01 1.507299e-02 -1.205655e-01 -2.492925e-01 -3.640581e-01 -4.592784e-01 -5.312142e-01 -5.780158e-01 -5.995105e-01 -5.968460e-01 -5.509264e-01 -5.089074e-01 -4.507558e-01 -3.792970e-01 -2.973203e-01 -2.075160e-01 -1.124596e-01 -1.463084e-02 8.354634e-02 1.796522e-01 2.712182e-01 3.556819e-01 4.303602e-01 4.924541e-01 5.390994e-01 5.674779e-01 5.750051e-01 5.595975e-01 5.200087e-01 4.561975e-01 3.696604e-01 2.636364e-01 1.430930e-01 1.443144e-02 -1.150923e-01 -2.381350e-01 -3.480558e-01 -4.395479e-01 -5.089974e-01 -5.545452e-01 -5.759109e-01 -5.740767e-01 -5.246745e-01 -4.853244e-01 -4.303887e-01 -3.625286e-01 -2.844055e-01 -1.986149e-01 -1.076655e-01 -1.398904e-02 8.002788e-02 1.720017e-01 2.595082e-01 3.400470e-01 4.110231e-01 4.697596e-01 5.135512e-01 5.397761e-01 5.460734e-01 5.305902e-01 4.922859e-01 4.312566e-01 3.490208e-01 2.486850e-01 1.349119e-01 1.364144e-02 -1.084300e-01 -2.245288e-01 -3.285018e-01 -4.153804e-01 -4.817139e-01 -5.256462e-01 -5.467787e-01 -5.459013e-01 -4.947596e-01 -4.583873e-01 -4.070777e-01 -3.433044e-01 -2.695803e-01 -1.883890e-01 -1.021570e-01 -1.325594e-02 7.597629e-02 1.632034e-01 2.460577e-01 3.221150e-01 3.888854e-01 4.438335e-01 4.844361e-01 5.082910e-01 5.132834e-01 4.978100e-01 4.610466e-01 4.032271e-01 3.258791e-01 2.319505e-01 1.257623e-01 1.274988e-02 -1.009960e-01 -2.093176e-01 -3.065934e-01 -3.882321e-01 -4.509767e-01 -4.929915e-01 -5.137626e-01 -5.138788e-01 -4.626806e-01 -4.294262e-01 -3.819584e-01 -3.225504e-01 -2.535527e-01 -1.773235e-01 -9.619532e-02 -1.246777e-02 7.158061e-02 1.536717e-01 2.315057e-01 3.027464e-01 3.650224e-01 4.159530e-01 4.532100e-01 4.746219e-01 4.783276e-01 4.629750e-01 4.279515e-01 3.736172e-01 3.014925e-01 2.143482e-01 1.161463e-01 1.180464e-02 -9.320039e-02 -1.933356e-01 -2.835230e-01 -3.595666e-01 -4.184232e-01 -4.582960e-01 -4.785701e-01 -4.796391e-01 -4.299035e-01 -3.997537e-01 -3.561608e-01 -3.011938e-01 -2.370348e-01 -1.659086e-01 -9.004421e-02 -1.166032e-02 6.703350e-02 1.438267e-01 2.164967e-01 2.828045e-01 3.405049e-01 3.873788e-01 4.212965e-01 4.403168e-01 4.428259e-01 4.277112e-01 3.945551e-01 3.438247e-01 2.770163e-01 1.967135e-01 1.065203e-01 1.085009e-02 -8.541427e-02 -1.773422e-01 -2.603852e-01 -3.307395e-01 -3.855856e-01 -4.231832e-01 -4.428359e-01 -4.447600e-01 -3.977761e-01 -3.705893e-01 -3.307439e-01 -2.801105e-01 -2.207034e-01 -1.546113e-01 -8.395538e-02 -1.086686e-02 6.252050e-02 1.340707e-01 2.016446e-01 2.631058e-01 3.163379e-01 3.592833e-01 3.900055e-01 4.067831e-01 4.082333e-01 3.934611e-01 3.622197e-01 3.150608e-01 2.534418e-01 1.797582e-01 9.727202e-02 9.924695e-03 -7.795110e-02 -1.619831e-01 -2.381175e-01 -3.029241e-01 -3.538057e-01 -3.890922e-01 -4.080277e-01 -4.106755e-01 -3.674734e-01 -3.430081e-01 -3.066508e-01 -2.600867e-01 -2.051695e-01 -1.438554e-01 -7.815729e-02 -1.011670e-02 5.821185e-02 1.247704e-01 1.875060e-01 2.443851e-01 2.934183e-01 3.327017e-01 3.604804e-01 3.752343e-01 3.757876e-01 3.614352e-01 3.320733e-01 2.883159e-01 2.315713e-01 1.640540e-01 8.871167e-02 9.060240e-03 -7.105961e-02 -1.477748e-01 -2.174768e-01 -2.770778e-01 -3.241923e-01 -3.572287e-01 -3.753923e-01 -3.786203e-01 -3.399727e-01 -3.179155e-01 -2.846840e-01 -2.417969e-01 -1.909611e-01 -1.340084e-01 -7.284821e-02 -9.434471e-03 5.425695e-02 1.162456e-01 1.745632e-01 2.272751e-01 2.725106e-01 3.085077e-01 3.336744e-01 3.466682e-01 3.464919e-01 3.325999e-01 3.050034e-01 2.643590e-01 2.120205e-01 1.500359e-01 8.107451e-02 8.282040e-03 -6.492595e-02 -1.351075e-01 -1.990410e-01 -2.539410e-01 -2.976156e-01 -3.285532e-01 -3.459378e-01 -3.496074e-01 -3.160518e-01 -2.960410e-01 -2.654973e-01 -2.257958e-01 -1.785151e-01 -1.253758e-01 -6.819315e-02 -8.839969e-03 5.078161e-02 1.087640e-01 1.632174e-01 2.122974e-01 2.542399e-01 2.874073e-01 3.103480e-01 3.218697e-01 3.211233e-01 3.076921e-01 2.816760e-01 2.437584e-01 1.952386e-01 1.380183e-01 7.453011e-02 7.609541e-03 -5.968170e-02 -1.242604e-01 -1.832291e-01 -2.340585e-01 -2.747257e-01 -3.037951e-01 -3.204427e-01 -3.244315e-01 -2.963032e-01 -2.779480e-01 -2.496011e-01 -2.125205e-01 -1.681781e-01 -1.182010e-01 -6.432367e-02 -8.348440e-03 4.788729e-02 1.025398e-01 1.537879e-01 1.998647e-01 2.390959e-01 2.699475e-01 2.910828e-01 3.014304e-01 3.002582e-01 2.872489e-01 2.625683e-01 2.269146e-01 1.815375e-01 1.282171e-01 6.919451e-02 7.057183e-03 -5.541465e-02 -1.154231e-01 -1.703292e-01 -2.178112e-01 -2.559856e-01 -2.834838e-01 -2.994821e-01 -3.036892e-01 -2.811580e-01 -2.640516e-01 -2.373756e-01 -2.022993e-01 -1.602123e-01 -1.126689e-01 -6.133980e-02 -7.971043e-03 4.565197e-02 9.773702e-02 1.465176e-01 1.902881e-01 2.274446e-01 2.565327e-01 2.763033e-01 2.857756e-01 2.843041e-01 2.716436e-01 2.480056e-01 2.140955e-01 1.711225e-01 1.207727e-01 6.514299e-02 6.635199e-03 -5.217986e-02 -1.087165e-01 -1.605293e-01 -2.054523e-01 -2.417091e-01 -2.679851e-01 -2.834607e-01 -2.878077e-01 -2.709109e-01 -2.546391e-01 -2.290869e-01 -1.953638e-01 -1.548037e-01 -1.089111e-01 -5.931282e-02 -7.715499e-03 4.413179e-02 9.447283e-02 1.415792e-01 1.837879e-01 2.195429e-01 2.474441e-01 2.663011e-01 2.751936e-01 2.735330e-01 2.611208e-01 2.381971e-01 2.054703e-01 1.641207e-01 1.157711e-01 6.242136e-02 6.350456e-03 -5.000955e-02 -1.042135e-01 -1.539441e-01 -1.971398e-01 -2.320964e-01 -2.575371e-01 -2.726470e-01 -2.770753e-01 -2.657441e-01 -2.498900e-01 -2.249023e-01 -1.918606e-01 -1.520708e-01 -1.070119e-01 -5.828828e-02 -7.586582e-03 4.336288e-02 9.282243e-02 1.390833e-01 1.805039e-01 2.155530e-01 2.428576e-01 2.612570e-01 2.698610e-01 2.681090e-01 2.558257e-01 2.332649e-01 2.011358e-01 1.606039e-01 1.132597e-01 6.105499e-02 6.207108e-03 -4.892078e-02 -1.019534e-01 -1.506375e-01 -1.929634e-01 -2.272637e-01 -2.522807e-01 -2.672026e-01 -2.716677e-01 -2.754639e-01 -2.588358e-01 -2.327942e-01 -1.984745e-01 -1.572352e-01 -1.106034e-01 -6.022675e-02 -7.830821e-03 4.481742e-02 9.594399e-02 1.438019e-01 1.867079e-01 2.230839e-01 2.515053e-01 2.707562e-01 2.798907e-01 2.782970e-01 2.657585e-01 2.425054e-01 2.092472e-01 1.671787e-01 1.179511e-01 6.360610e-02 6.474680e-03 -5.095300e-02 -1.061731e-01 -1.568147e-01 -2.007716e-01 -2.363082e-01 -2.621298e-01 -2.774171e-01 -2.818268e-01 -2.811580e-01 -2.640516e-01 -2.373756e-01 -2.022993e-01 -1.602123e-01 -1.126689e-01 -6.133980e-02 -7.971042e-03 4.565197e-02 9.773702e-02 1.465176e-01 1.902881e-01 2.274446e-01 2.565327e-01 2.763033e-01 2.857756e-01 2.843041e-01 2.716436e-01 2.480056e-01 2.140955e-01 1.711225e-01 1.207727e-01 6.514299e-02 6.635199e-03 -5.217986e-02 -1.087165e-01 -1.605293e-01 -2.054523e-01 -2.417091e-01 -2.679851e-01 -2.834607e-01 -2.878077e-01 -2.924683e-01 -2.744033e-01 -2.464615e-01 -2.098800e-01 -1.661100e-01 -1.167592e-01 -6.354386e-02 -8.249301e-03 4.730331e-02 1.012865e-01 1.518957e-01 1.973820e-01 2.360905e-01 2.665078e-01 2.873186e-01 2.974722e-01 2.962546e-01 2.833622e-01 2.589675e-01 2.237658e-01 1.789939e-01 1.264072e-01 6.821248e-02 6.954779e-03 -5.463236e-02 -1.137980e-01 -1.679465e-01 -2.147919e-01 -2.524768e-01 -2.796483e-01 -2.954875e-01 -2.996987e-01 -3.092278e-01 -2.897213e-01 -2.598899e-01 -2.210724e-01 -1.748106e-01 -1.227903e-01 -6.679323e-02 -8.660911e-03 4.973482e-02 1.065165e-01 1.598257e-01 2.078509e-01 2.488632e-01 2.812620e-01 3.036336e-01 3.148215e-01 3.140076e-01 3.007975e-01 2.753007e-01 2.381938e-01 1.907509e-01 1.348297e-01 7.280218e-02 7.430188e-03 -5.830489e-02 -1.214004e-01 -1.790328e-01 -2.287350e-01 -2.685301e-01 -2.970106e-01 -3.133631e-01 -3.173449e-01 -3.311579e-01 -3.097272e-01 -2.773986e-01 -2.356451e-01 -1.861266e-01 -1.306286e-01 -7.101545e-02 -9.198246e-03 5.288903e-02 1.133077e-01 1.701325e-01 2.214734e-01 2.655070e-01 3.005201e-01 3.249687e-01 3.375552e-01 3.373195e-01 3.237406e-01 2.968375e-01 2.572534e-01 2.063062e-01 1.459857e-01 7.888397e-02 8.055831e-03 -6.318094e-02 -1.314816e-01 -1.937143e-01 -2.471697e-01 -2.897145e-01 -3.198749e-01 -3.368524e-01 