<VTKFile type="RectilinearGrid">
<RectilinearGrid WholeExtent="0 32 0 32 0 32" GhostLevel="0">
<Piece Extent="0 32 0 32 0 32">
<CellData Scalars="p phase" Vectors="vel">
<DataArray type="Float32" Name="p">
-2.541015e-01 -2.353586e-01 -2.080436e-01 -1.732748e-01 -1.323773e-01 -8.683487e-02 -3.824655e-02 1.171357e-02 6.133410e-02 1.089032e-01 1.527470e-01 1.912714e-01 2.230088e-01 2.466697e-01 2.612003e-01 2.658415e-01 2.601874e-01 2.442350e-01 2.184202e-01 1.836317e-01 1.411957e-01 9.282943e-02 4.056235e-02 -1.337001e-02 -6.664978e-02 -1.170073e-01 -1.623445e-01 -2.008416e-01 -2.310366e-01 -2.518758e-01 -2.627344e-01 -2.634111e-01 -2.588761e-01 -2.396944e-01 -2.118098e-01 -1.763676e-01 -1.347179e-01 -8.836754e-02 -3.893653e-02 1.188178e-02 6.235719e-02 1.107588e-01 1.553923e-01 1.946411e-01 2.270122e-01 2.511894e-01 2.660902e-01 2.709284e-01 2.652737e-01 2.491061e-01 2.228546e-01 1.874142e-01 1.441326e-01 9.476412e-02 4.138851e-02 -1.369850e-02 -6.811491e-02 -1.195287e-01 -1.657873e-01 -2.050285e-01 -2.357627e-01 -2.569236e-01 -2.678878e-01 -2.684665e-01 -2.683341e-01 -2.482788e-01 -2.192635e-01 -1.824865e-01 -1.393477e-01 -9.139933e-02 -4.030212e-02 1.221262e-02 6.437834e-02 1.144268e-01 1.606238e-01 2.013082e-01 2.349378e-01 2.601422e-01 2.757827e-01 2.810177e-01 2.753686e-01 2.587800e-01 2.316664e-01 1.949342e-01 1.499738e-01 9.861287e-02 4.303206e-02 -1.435256e-02 -7.103006e-02 -1.245437e-01 -1.726319e-01 -2.133480e-01 -2.451479e-01 -2.669413e-01 -2.781086e-01 -2.784869e-01 -2.822862e-01 -2.609316e-01 -2.302418e-01 -1.914940e-01 -1.461611e-01 -9.586104e-02 -4.231383e-02 1.269499e-02 6.734637e-02 1.198187e-01 1.683198e-01 2.111242e-01 2.466171e-01 2.733483e-01 2.900949e-01 2.959322e-01 2.903075e-01 2.731111e-01 2.447327e-01 2.060943e-01 1.586481e-01 1.043307e-01 4.547390e-02 -1.532504e-02 -7.536146e-02 -1.319909e-01 -1.827886e-01 -2.256826e-01 -2.590489e-01 -2.817638e-01 -2.932156e-01 -2.932825e-01 -3.004304e-01 -2.773673e-01 -2.444889e-01 -2.031752e-01 -1.549931e-01 -1.016448e-01 -4.492507e-02 1.331221e-02 7.118264e-02 1.267974e-01 1.782913e-01 2.238565e-01 2.617850e-01 2.905221e-01 3.087340e-01 3.153846e-01 3.098211e-01 2.918577e-01 2.618476e-01 2.207292e-01 1.700334e-01 1.118401e-01 4.868184e-02 -1.660274e-02 -8.104955e-02 -1.417639e-01 -1.961043e-01 -2.418344e-01 -2.772274e-01 -3.011197e-01 -3.129146e-01 -3.125487e-01 -3.223346e-01 -2.971809e-01 -2.616439e-01 -2.172280e-01 -1.656128e-01 -1.085995e-01 -4.807027e-02 1.404245e-02 7.577887e-02 1.351729e-01 1.902744e-01 2.391787e-01 2.800660e-01 3.112557e-01 3.312771e-01 3.389556e-01 3.335108e-01 3.146578e-01 2.826982e-01 2.385846e-01 1.839405e-01 1.210208e-01 5.260617e-02 -1.816313e-02 -8.799926e-02 -1.536954e-01 -2.123418e-01 -2.615010e-01 -2.993250e-01 -3.246067e-01 -3.367753e-01 -3.358446e-01 -3.474173e-01 -3.198323e-01 -2.812292e-01 -2.332553e-01 -1.777174e-01 -1.165272e-01 -5.166246e-02 1.485891e-02 8.099602e-02 1.446989e-01 2.039247e-01 2.566608e-01 3.009615e-01 3.350013e-01 3.571500e-01 3.660681e-01 3.608207e-01 3.409990e-01 3.068355e-01 2.592910e-01 2.000918e-01 1.316949e-01 5.717448e-02 -1.997117e-02 -9.606787e-02 -1.675378e-01 -2.311547e-01 -2.842483e-01 -3.248339e-01 -3.516634e-01 -3.642048e-01 -3.625708e-01 -3.749324e-01 -3.446353e-01 -3.026428e-01 -2.507591e-01 -1.909287e-01 -1.251804e-01 -5.559194e-02 1.573081e-02 8.666375e-02 1.550710e-01 2.188130e-01 2.757631e-01 3.238394e-01 3.610573e-01 3.856079e-01 3.959638e-01 3.910100e-01 3.701891e-01 3.336449e-01 2.823370e-01 2.180989e-01 1.436130e-01 6.228527e-02 -2.197584e-02 -1.050531e-01 -1.829439e-01 -2.520633e-01 -3.094818e-01 -3.530694e-01 -3.815425e-01 -3.944246e-01 -3.919495e-01 -4.039634e-01 -3.707544e-01 -3.251568e-01 -2.691408e-01 -2.047933e-01 -1.342625e-01 -5.972576e-02 1.662425e-02 9.258248e-02 1.659286e-01 2.344271e-01 2.958355e-01 3.479311e-01 3.885612e-01 4.157246e-01 4.276877e-01 4.231334e-01 4.013331e-01 3.623215e-01 3.070443e-01 2.374428e-01 1.564390e-01 6.780166e-02 -2.410837e-02 -1.146829e-01 -1.994505e-01 -2.744338e-01 -3.364257e-01 -3.831484e-01 -4.132930e-01 -4.264566e-01 -4.230152e-01 -4.334321e-01 -3.972152e-01 -3.479289e-01 -2.877111e-01 -2.187907e-01 -1.434326e-01 -6.390975e-02 1.750394e-02 9.852762e-02 1.768622e-01 2.501804e-01 3.161276e-01 3.723410e-01 4.164972e-01 4.463963e-01 4.600873e-01 4.560356e-01 4.333229e-01 3.918567e-01 3.325548e-01 2.574600e-01 1.697403e-01 7.354545e-02 -2.628248e-02 -1.246116e-01 -2.164708e-01 -2.974695e-01 -3.641147e-01 -4.139851e-01 -4.457592e-01 -4.591259e-01 -4.546206e-01 -4.621279e-01 -4.229325e-01 -3.700261e-01 -3.057103e-01 -2.323490e-01 -1.523163e-01 -6.797263e-02 1.833461e-02 1.042574e-01 1.874261e-01 2.654301e-01 3.358101e-01 3.960700e-01 4.437210e-01 4.763663e-01 4.918354e-01 4.883701e-01 4.648517e-01 4.210473e-01 3.578330e-01 2.773427e-01 1.829852e-01 7.929407e-02 -2.839846e-02 -1.344239e-01 -2.333009e-01 -3.202209e-01 -3.914083e-01 -4.443090e-01 -4.776039e-01 -4.910873e-01 -4.854655e-01 -4.887594e-01 -4.467564e-01 -3.904666e-01 -3.223420e-01 -2.448698e-01 -1.605213e-01 -7.173367e-02 1.908304e-02 1.095237e-01 1.971585e-01 2.795049e-01 3.540106e-01 4.180589e-01 4.690077e-01 5.042750e-01 5.214806e-01 5.186478e-01 4.944583e-01 4.485334e-01 3.816974e-01 2.961600e-01 1.955548e-01 8.478201e-02 -3.035074e-02 -1.436526e-01 -2.491459e-01 -3.416196e-01 -4.170327e-01 -4.727144e-01 -5.073611e-01 -5.208807e-01 -5.141516e-01 -5.120289e-01 -4.675393e-01 -4.082745e-01 -3.368179e-01 -2.557620e-01 -1.676600e-01 -7.501256e-02 1.971946e-02 1.140854e-01 2.056070e-01 2.917428e-01 3.698628e-01 4.372473e-01 4.911209e-01 5.287381e-01 5.475302e-01 5.453218e-01 5.206091e-01 4.728736e-01 4.028826e-01 3.129057e-01 2.067718e-01 8.971070e-02 -3.203860e-02 -1.518079e-01 -2.631673e-01 -3.605417e-01 -4.396556e-01 -4.977422e-01 -5.335226e-01 -5.470164e-01 -5.392635e-01 -5.307243e-01 -4.842144e-01 -4.225470e-01 -3.484106e-01 -2.644810e-01 -1.733752e-01 -7.764211e-02 2.021910e-02 1.177238e-01 2.123579e-01 3.015351e-01 3.825654e-01 4.526478e-01 5.089007e-01 5.484460e-01 5.685605e-01 5.669037e-01 5.418151e-01 4.926553e-01 4.201380e-01 3.265750e-01 2.159522e-01 9.376920e-02 -3.337654e-02 -1.584190e-01 -2.745508e-01 -3.758962e-01 -4.579897e-01 -5.179914e-01 -5.546502e-01 -5.680843e-01 -5.594709e-01 -5.438182e-01 -4.958814e-01 -4.325249e-01 -3.565103e-01 -2.705709e-01 -1.773673e-01 -7.948125e-02 2.056286e-02 1.202581e-01 2.170667e-01 3.083724e-01 3.914443e-01 4.634257e-01 5.213608e-01 5.622780e-01 5.833444e-01 5.821009e-01 5.567733e-01 5.066331e-01 4.323516e-01 3.362675e-01 2.224756e-01 9.666768e-02 -3.430147e-02 -1.630788e-01 -2.825857e-01 -3.867307e-01 -4.709145e-01 -5.322485e-01 -5.695054e-01 -5.828769e-01 -5.736407e-01 -5.505625e-01 -5.018869e-01 -4.376583e-01 -3.606758e-01 -2.737022e-01 -1.794201e-01 -8.042775e-02 2.073797e-02 1.215590e-01 2.194859e-01 3.118873e-01 3.960120e-01 4.689745e-01 5.277810e-01 5.694118e-01 5.909768e-01 5.899550e-01 5.645124e-01 5.138728e-01 4.386846e-01 3.412988e-01 2.258665e-01 9.817929e-02 -3.477339e-02 -1.654881e-01 -2.867439e-01 -3.923370e-01 -4.775987e-01 -5.396161e-01 -5.771754e-01 -5.905081e-01 -5.809444e-01 -5.505625e-01 -5.018869e-01 -4.376583e-01 -3.606758e-01 -2.737022e-01 -1.794202e-01 -8.042773e-02 2.073796e-02 1.215590e-01 2.194859e-01 3.118873e-01 3.960120e-01 4.689745e-01 5.277810e-01 5.694118e-01 5.909768e-01 5.899550e-01 5.645123e-01 5.138728e-01 4.386845e-01 3.412988e-01 2.258665e-01 9.817930e-02 -3.477340e-02 -1.654881e-01 -2.867439e-01 -3.923369e-01 -4.775987e-01 -5.396161e-01 -5.771754e-01 -5.905081e-01 -5.809445e-01 -5.438182e-01 -4.958814e-01 -4.325249e-01 -3.565102e-01 -2.705709e-01 -1.773673e-01 -7.948126e-02 2.056288e-02 1.202581e-01 2.170667e-01 3.083724e-01 3.914444e-01 4.634257e-01 5.213608e-01 5.622779e-01 5.833444e-01 5.821009e-01 5.567733e-01 5.066331e-01 4.323517e-01 3.362674e-01 2.224756e-01 9.666767e-02 -3.430146e-02 -1.630788e-01 -2.825857e-01 -3.867307e-01 -4.709145e-01 -5.322486e-01 -5.695053e-01 -5.828770e-01 -5.736406e-01 -5.307243e-01 -4.842144e-01 -4.225470e-01 -3.484106e-01 -2.644810e-01 -1.733752e-01 -7.764210e-02 2.021909e-02 1.177238e-01 2.123579e-01 3.015351e-01 3.825654e-01 4.526478e-01 5.089007e-01 5.484460e-01 5.685605e-01 5.669037e-01 5.418150e-01 4.926553e-01 4.201380e-01 3.265750e-01 2.159522e-01 9.376922e-02 -3.337655e-02 -1.584189e-01 -2.745508e-01 -3.758962e-01 -4.579897e-01 -5.179914e-01 -5.546502e-01 -5.680843e-01 -5.594709e-01 -5.120289e-01 -4.675393e-01 -4.082745e-01 -3.368178e-01 -2.557620e-01 -1.676600e-01 -7.501258e-02 1.971947e-02 1.140854e-01 2.056070e-01 2.917428e-01 3.698628e-01 4.372473e-01 4.911209e-01 5.287381e-01 5.475302e-01 5.453218e-01 5.206091e-01 4.728736e-01 4.028826e-01 3.129056e-01 2.067718e-01 8.971069e-02 -3.203858e-02 -1.518079e-01 -2.631673e-01 -3.605417e-01 -4.396556e-01 -4.977422e-01 -5.335226e-01 -5.470164e-01 -5.392635e-01 -4.887593e-01 -4.467565e-01 -3.904666e-01 -3.223420e-01 -2.448698e-01 -1.605213e-01 -7.173365e-02 1.908302e-02 1.095237e-01 1.971585e-01 2.795049e-01 3.540106e-01 4.180589e-01 4.690077e-01 5.042751e-01 5.214806e-01 5.186478e-01 4.944583e-01 4.485334e-01 3.816974e-01 2.961600e-01 1.955548e-01 8.478202e-02 -3.035075e-02 -1.436525e-01 -2.491459e-01 -3.416196e-01 -4.170327e-01 -4.727144e-01 -5.073611e-01 -5.208807e-01 -5.141516e-01 -4.621279e-01 -4.229324e-01 -3.700261e-01 -3.057102e-01 -2.323490e-01 -1.523162e-01 -6.797265e-02 1.833462e-02 1.042574e-01 1.874261e-01 2.654301e-01 3.358101e-01 3.960700e-01 4.437211e-01 4.763663e-01 4.918354e-01 4.883701e-01 4.648517e-01 4.210473e-01 3.578330e-01 2.773427e-01 1.829852e-01 7.929406e-02 -2.839844e-02 -1.344239e-01 -2.333009e-01 -3.202209e-01 -3.914083e-01 -4.443090e-01 -4.776038e-01 -4.910873e-01 -4.854655e-01 -4.334321e-01 -3.972153e-01 -3.479289e-01 -2.877111e-01 -2.187907e-01 -1.434326e-01 -6.390973e-02 1.750393e-02 9.852764e-02 1.768622e-01 2.501804e-01 3.161276e-01 3.723410e-01 4.164972e-01 4.463963e-01 4.600873e-01 4.560356e-01 4.333229e-01 3.918567e-01 3.325548e-01 2.574600e-01 1.697403e-01 7.354546e-02 -2.628249e-02 -1.246116e-01 -2.164708e-01 -2.974695e-01 -3.641147e-01 -4.139851e-01 -4.457592e-01 -4.591259e-01 -4.546206e-01 -4.039634e-01 -3.707544e-01 -3.251569e-01 -2.691408e-01 -2.047933e-01 -1.342625e-01 -5.972578e-02 1.662427e-02 9.258247e-02 1.659287e-01 2.344271e-01 2.958355e-01 3.479311e-01 3.885612e-01 4.157246e-01 4.276877e-01 4.231334e-01 4.013331e-01 3.623215e-01 3.070444e-01 2.374428e-01 1.564390e-01 6.780164e-02 -2.410836e-02 -1.146830e-01 -1.994505e-01 -2.744338e-01 -3.364256e-01 -3.831485e-01 -4.132929e-01 -4.264566e-01 -4.230152e-01 -3.749324e-01 -3.446353e-01 -3.026428e-01 -2.507591e-01 -1.909287e-01 -1.251804e-01 -5.559192e-02 1.573080e-02 8.666376e-02 1.550710e-01 2.188130e-01 2.757630e-01 3.238394e-01 3.610573e-01 3.856079e-01 3.959638e-01 3.910100e-01 3.701891e-01 3.336449e-01 2.823370e-01 2.180989e-01 1.436130e-01 6.228529e-02 -2.197585e-02 -1.050531e-01 -1.829439e-01 -2.520633e-01 -3.094818e-01 -3.530694e-01 -3.815425e-01 -3.944246e-01 -3.919495e-01 -3.474173e-01 -3.198323e-01 -2.812292e-01 -2.332553e-01 -1.777174e-01 -1.165272e-01 -5.166248e-02 1.485893e-02 8.099601e-02 1.446989e-01 2.039247e-01 2.566608e-01 3.009615e-01 3.350013e-01 3.571500e-01 3.660681e-01 3.608207e-01 3.409990e-01 3.068355e-01 2.592911e-01 2.000917e-01 1.316949e-01 5.717447e-02 -1.997116e-02 -9.606788e-02 -1.675378e-01 -2.311547e-01 -2.842483e-01 -3.248340e-01 -3.516634e-01 -3.642048e-01 -3.625708e-01 -3.223346e-01 -2.971809e-01 -2.616439e-01 -2.172280e-01 -1.656127e-01 -1.085995e-01 -4.807026e-02 1.404244e-02 7.577889e-02 1.351729e-01 1.902744e-01 2.391787e-01 2.800660e-01 3.112557e-01 3.312771e-01 3.389556e-01 3.335109e-01 3.146578e-01 2.826982e-01 2.385846e-01 1.839405e-01 1.210207e-01 5.260618e-02 -1.816314e-02 -8.799924e-02 -1.536954e-01 -2.123417e-01 -2.615010e-01 -2.993249e-01 -3.246067e-01 -3.367753e-01 -3.358446e-01 -3.004304e-01 -2.773673e-01 -2.444889e-01 -2.031752e-01 -1.549931e-01 -1.016448e-01 -4.492509e-02 1.331222e-02 7.118263e-02 1.267974e-01 1.782913e-01 2.238566e-01 2.617849e-01 2.905221e-01 3.087340e-01 3.153846e-01 3.098211e-01 2.918577e-01 2.618476e-01 2.207293e-01 1.700334e-01 1.118401e-01 4.868182e-02 -1.660273e-02 -8.104956e-02 -1.417639e-01 -1.961043e-01 -2.418343e-01 -2.772274e-01 -3.011196e-01 -3.129147e-01 -3.125487e-01 -2.822861e-01 -2.609316e-01 -2.302418e-01 -1.914941e-01 -1.461611e-01 -9.586106e-02 -4.231381e-02 1.269497e-02 6.734639e-02 1.198187e-01 1.683198e-01 2.111242e-01 2.466171e-01 2.733483e-01 2.900949e-01 2.959321e-01 2.903075e-01 2.731111e-01 2.447327e-01 2.060943e-01 1.586481e-01 1.043306e-01 4.547391e-02 -1.532506e-02 -7.536144e-02 -1.319909e-01 -1.827886e-01 -2.256826e-01 -2.590489e-01 -2.817638e-01 -2.932156e-01 -2.932825e-01 -2.683341e-01 -2.482788e-01 -2.192635e-01 -1.824865e-01 -1.393477e-01 -9.139931e-02 -4.030214e-02 1.221263e-02 6.437832e-02 1.144268e-01 1.606238e-01 2.013082e-01 2.349378e-01 2.601422e-01 2.757827e-01 2.810177e-01 2.753686e-01 2.587801e-01 2.316664e-01 1.949342e-01 1.499738e-01 9.861288e-02 4.303205e-02 -1.435254e-02 -7.103007e-02 -1.245437e-01 -1.726319e-01 -2.133480e-01 -2.451479e-01 -2.669413e-01 -2.781086e-01 -2.784869e-01 -2.588761e-01 -2.396944e-01 -2.118098e-01 -1.763676e-01 -1.347179e-01 -8.836756e-02 -3.893652e-02 1.188176e-02 6.235720e-02 1.107588e-01 1.553923e-01 1.946411e-01 2.270123e-01 2.511894e-01 2.660902e-01 2.709284e-01 2.652737e-01 2.491061e-01 2.228546e-01 1.874142e-01 1.441326e-01 9.476410e-02 4.138852e-02 -1.369852e-02 -6.811490e-02 -1.195287e-01 -1.657873e-01 -2.050285e-01 -2.357627e-01 -2.569236e-01 -2.678878e-01 -2.684665e-01 -2.541016e-01 -2.353586e-01 -2.080436e-01 -1.732748e-01 -1.323773e-01 -8.683486e-02 -3.824657e-02 1.171359e-02 6.133408e-02 1.089032e-01 1.527470e-01 1.912715e-01 2.230088e-01 2.466697e-01 2.612003e-01 2.658416e-01 2.601874e-01 2.442350e-01 2.184202e-01 1.836317e-01 1.411957e-01 9.282944e-02 4.056234e-02 -1.337000e-02 -6.664979e-02 -1.170072e-01 -1.623445e-01 -2.008416e-01 -2.310366e-01 -2.518758e-01 -2.627344e-01 -2.634110e-01 -2.588761e-01 -2.396944e-01 -2.118098e-01 -1.763676e-01 -1.347179e-01 -8.836754e-02 -3.893653e-02 1.188178e-02 6.235719e-02 1.107588e-01 1.553923e-01 1.946411e-01 2.270122e-01 2.511894e-01 2.660902e-01 2.709284e-01 2.652737e-01 2.491061e-01 2.228546e-01 1.874142e-01 1.441326e-01 9.476412e-02 4.138851e-02 -1.369850e-02 -6.811491e-02 -1.195287e-01 -1.657873e-01 -2.050285e-01 -2.357627e-01 -2.569236e-01 -2.678878e-01 -2.684665e-01 -2.639039e-01 -2.442519e-01 -2.157623e-01 -1.796090e-01 -1.371684e-01 -8.997127e-02 -3.965868e-02 1.205643e-02 6.342535e-02 1.126980e-01 1.581596e-01 1.981703e-01 2.312115e-01 2.559378e-01 2.712368e-01 2.762921e-01 2.706470e-01 2.542614e-01 2.275556e-01 1.914297e-01 1.472537e-01 9.682085e-02 4.226523e-02 -1.405233e-02 -6.967979e-02 -1.222174e-01 -1.694534e-01 -2.094801e-01 -2.407787e-01 -2.622708e-01 -2.733361e-01 -2.738006e-01 -2.738721e-01 -2.532822e-01 -2.235899e-01 -1.860256e-01 -1.420184e-01 -9.314520e-02 -4.108888e-02 1.240002e-02 6.553635e-02 1.165331e-01 1.636351e-01 2.051573e-01 2.395297e-01 2.653503e-01 2.814459e-01 2.869401e-01 2.813219e-01 2.645109e-01 2.369080e-01 1.994232e-01 1.534695e-01 1.009180e-01 4.401152e-02 -1.475815e-02 -7.279843e-02 -1.275732e-01 -1.767523e-01 -2.183372e-01 -2.507521e-01 -2.728951e-01 -2.841530e-01 -2.843830e-01 -2.885969e-01 -2.666084e-01 -2.351316e-01 -1.954811e-01 -1.491624e-01 -9.782038e-02 -4.319763e-02 1.290096e-02 6.863857e-02 1.221749e-01 1.716970e-01 2.154539e-01 2.518005e-01 2.792506e-01 2.965406e-01 3.027031e-01 2.971446e-01 2.797213e-01 2.508028e-01 2.113105e-01 1.627201e-01 1.070184e-01 4.661162e-02 -1.581108e-02 -7.744436e-02 -1.355465e-01 -1.876090e-01 -2.314983e-01 -2.655547e-01 -2.886446e-01 -3.001684e-01 -3.000326e-01 -3.077821e-01 -2.839481e-01 -2.501324e-01 -2.077599e-01 -1.584347e-01 -1.038882e-01 -4.593841e-02 1.354211e-02 7.265198e-02 1.294848e-01 1.821544e-01 2.288265e-01 2.677590e-01 2.973557e-01 3.162336e-01 3.233033e-01 3.178585e-01 2.996671e-01 2.690517e-01 2.269439e-01 1.748990e-01 1.150557e-01 5.003775e-02 -1.720049e-02 -8.356781e-02 -1.460461e-01 -2.018893e-01 -2.487856e-01 -2.849678e-01 -3.092648e-01 -3.211012e-01 -3.204536e-01 -3.309974e-01 -3.048951e-01 -2.682288e-01 -2.225568e-01 -1.696013e-01 -1.111955e-01 -4.924479e-02 1.430066e-02 7.746606e-02 1.382691e-01 1.947394e-01 2.449444e-01 2.870266e-01 3.192566e-01 3.401042e-01 3.483272e-01 3.430753e-01 3.240005e-01 2.913588e-01 2.460872e-01 1.898332e-01 1.249212e-01 5.424561e-02 -1.890646e-02 -9.108370e-02 -1.589210e-01 -2.193757e-01 -2.699174e-01 -3.086512e-01 -3.343684e-01 -3.465313e-01 -3.452114e-01 -3.576549e-01 -3.289008e-01 -2.889340e-01 -2.394661e-01 -1.823527e-01 -1.195397e-01 -5.302806e-02 1.514884e-02 8.293762e-02 1.482749e-01 2.090987e-01 2.633678e-01 3.090946e-01 3.443969e-01 3.675718e-01 3.771951e-01 3.722412e-01 3.522160e-01 3.172864e-01 2.683845e-01 2.072584e-01 1.364478e-01 5.916797e-02 -2.089515e-02 -9.985713e-02 -1.739361e-01 -2.397366e-01 -2.944731e-01 -3.361084e-01 -3.634000e-01 -3.758673e-01 -3.737030e-01 -3.869879e-01 -3.552587e-01 -3.116270e-01 -2.579736e-01 -1.962979e-01 -1.286652e-01 -5.717492e-02 1.605439e-02 8.889038e-02 1.591872e-01 2.247886e-01 2.835390e-01 3.333109e-01 3.720537e-01 3.978715e-01 4.091314e-01 4.046021e-01 3.836132e-01 3.462170e-01 2.933258e-01 2.267911e-01 1.493913e-01 6.470735e-02 -2.311439e-02 -1.096871e-01 -1.907471e-01 -2.624943e-01 -3.218577e-01 -3.666489e-01 -3.956018e-01 -4.083154e-01 -4.051322e-01 -4.180400e-01 -3.830965e-01 -3.355484e-01 -2.774548e-01 -2.109643e-01 -1.382626e-01 -6.154693e-02 1.698208e-02 9.511607e-02 1.706300e-01 2.412748e-01 3.047800e-01 3.588736e-01 4.013276e-01 4.300377e-01 4.431414e-01 4.391755e-01 4.172645e-01 3.773192e-01 3.202144e-01 2.479007e-01 1.634108e-01 7.072742e-02 -2.549018e-02 -1.202925e-01 -2.088765e-01 -2.869953e-01 -3.512692e-01 -3.993576e-01 -4.299856e-01 -4.428569e-01 -4.384919e-01 -4.496689e-01 -4.113838e-01 -3.598084e-01 -2.971830e-01 -2.258038e-01 -1.479735e-01 -6.598176e-02 1.789493e-02 1.013791e-01 1.821728e-01 2.579403e-01 3.263003e-01 3.848379e-01 4.311454e-01 4.629029e-01 4.780050e-01 4.747373e-01 4.519957e-01 4.095254e-01 3.481426e-01 2.698877e-01 1.780527e-01 7.704476e-02 -2.792628e-02 -1.313025e-01 -2.276990e-01 -3.123917e-01 -3.816809e-01 -4.330792e-01 -4.653226e-01 -4.782436e-01 -4.725649e-01 -4.805741e-01 -4.389587e-01 -3.834119e-01 -3.163498e-01 -2.402089e-01 -1.574006e-01 -7.029773e-02 1.875632e-02 1.074241e-01 1.933444e-01 2.741037e-01 3.472188e-01 4.101397e-01 4.602847e-01 4.951202e-01 5.122949e-01 5.098351e-01 4.863937e-01 4.415315e-01 3.759876e-01 2.918762e-01 1.927422e-01 8.342198e-02 -3.030790e-02 -1.422584e-01 -2.464414e-01 -3.376436e-01 -4.118466e-01 -4.664300e-01 -5.001601e-01 -5.130195e-01 -5.059490e-01 -5.093501e-01 -4.645768e-01 -4.053006e-01 -3.341002e-01 -2.535391e-01 -1.661246e-01 -7.430127e-02 1.953163e-02 1.129876e-01 2.036529e-01 2.890484e-01 3.666014e-01 4.336402e-01 4.874228e-01 5.252145e-01 5.444284e-01 5.428367e-01 5.188483e-01 4.718324e-01 4.024362e-01 3.128294e-01 2.067899e-01 8.956605e-02 -3.251112e-02 -1.526296e-01 -2.642062e-01 -3.615501e-01 -4.403409e-01 -4.978442e-01 -5.328750e-01 -5.455770e-01 -5.371139e-01 -5.345685e-01 -4.869826e-01 -4.244136e-01 -3.495810e-01 -2.651568e-01 -1.737282e-01 -7.779816e-02 2.019028e-02 1.178125e-01 2.126142e-01 3.020633e-01 3.835137e-01 4.541903e-01 5.112122e-01 5.516672e-01 5.727569e-01 5.720209e-01 5.476410e-01 4.988010e-01 4.260514e-01 3.315980e-01 2.194199e-01 9.513535e-02 -3.441653e-02 -1.618477e-01 -2.800239e-01 -3.828176e-01 -4.656396e-01 -5.256647e-01 -5.617671e-01 -5.742509e-01 -5.644897e-01 -5.548812e-01 -5.049993e-01 -4.397614e-01 -3.619998e-01 -2.744711e-01 -1.798246e-01 -8.060688e-02 2.070677e-02 1.216647e-01 2.197832e-01 3.124911e-01 3.970861e-01 4.707125e-01 5.303785e-01 5.730286e-01 5.956905e-01 5.957105e-01 5.710777e-01 5.208151e-01 4.453834e-01 3.470081e-01 2.298267e-01 9.976115e-02 -3.592441e-02 -1.693556e-01 -2.929335e-01 -4.001645e-01 -4.862413e-01 -5.482721e-01 -5.851907e-01 -5.974433e-01 -5.865836e-01 -5.691355e-01 -5.176262e-01 -4.505068e-01 -3.706877e-01 -2.809844e-01 -1.840878e-01 -8.257372e-02 2.106185e-02 1.243499e-01 2.247880e-01 3.197794e-01 4.065839e-01 4.822906e-01 5.438309e-01 5.880482e-01 6.118467e-01 6.124335e-01 5.876577e-01 5.364234e-01 4.591212e-01 3.579851e-01 2.372614e-01 1.030875e-01 -3.696435e-02 -1.746664e-01 -3.020819e-01 -4.124531e-01 -5.008184e-01 -5.642432e-01 -6.017095e-01 -6.137702e-01 -6.021113e-01 -5.764866e-01 -5.241328e-01 -4.560402e-01 -3.751595e-01 -2.843359e-01 -1.862816e-01 -8.358665e-02 2.124258e-02 1.257289e-01 2.273606e-01 3.235285e-01 4.114733e-01 4.882563e-01 5.507691e-01 5.958033e-01 6.201986e-01 6.210897e-01 5.962516e-01 5.445249e-01 4.662621e-01 3.636996e-01 2.411389e-01 1.048296e-01 -3.749406e-02 -1.774182e-01 -3.068282e-01 -4.188274e-01 -5.083745e-01 -5.725138e-01 -6.102546e-01 -6.222068e-01 -6.101265e-01 -5.764866e-01 -5.241328e-01 -4.560402e-01 -3.751595e-01 -2.843359e-01 -1.862816e-01 -8.358667e-02 2.124259e-02 1.257289e-01 2.273606e-01 3.235285e-01 4.114733e-01 4.882563e-01 5.507691e-01 5.958032e-01 6.201986e-01 6.210897e-01 5.962516e-01 5.445249e-01 4.662621e-01 3.636996e-01 2.411389e-01 1.048296e-01 -3.749405e-02 -1.774182e-01 -3.068282e-01 -4.188274e-01 -5.083745e-01 -5.725139e-01 -6.102546e-01 -6.222068e-01 -6.101265e-01 -5.691355e-01 -5.176263e-01 -4.505068e-01 -3.706877e-01 -2.809844e-01 -1.840878e-01 -8.257371e-02 2.106184e-02 1.243500e-01 2.247880e-01 3.197794e-01 4.065839e-01 4.822907e-01 5.438309e-01 5.880482e-01 6.118466e-01 6.124335e-01 5.876577e-01 5.364234e-01 4.591212e-01 3.579851e-01 2.372614e-01 1.030875e-01 -3.696436e-02 -1.746664e-01 -3.020819e-01 -4.124531e-01 -5.008184e-01 -5.642431e-01 -6.017095e-01 -6.137702e-01 -6.021113e-01 -5.548812e-01 -5.049993e-01 -4.397614e-01 -3.619998e-01 -2.744711e-01 -1.798246e-01 -8.060689e-02 2.070679e-02 1.216647e-01 2.197832e-01 3.124911e-01 3.970861e-01 4.707125e-01 5.303785e-01 5.730286e-01 5.956905e-01 5.957105e-01 5.710777e-01 5.208151e-01 4.453834e-01 3.470081e-01 2.298267e-01 9.976114e-02 -3.592440e-02 -1.693556e-01 -2.929334e-01 -4.001645e-01 -4.862413e-01 -5.482721e-01 -5.851907e-01 -5.974433e-01 -5.865836e-01 -5.345685e-01 -4.869826e-01 -4.244135e-01 -3.495811e-01 -2.651568e-01 -1.737282e-01 -7.779814e-02 2.019026e-02 1.178125e-01 2.126142e-01 3.020633e-01 3.835137e-01 4.541903e-01 5.112122e-01 5.516672e-01 5.727569e-01 5.720209e-01 5.476410e-01 4.988010e-01 4.260514e-01 3.315980e-01 2.194199e-01 9.513536e-02 -3.441654e-02 -1.618477e-01 -2.800240e-01 -3.828175e-01 -4.656396e-01 -5.256647e-01 -5.617671e-01 -5.742509e-01 -5.644897e-01 -5.093501e-01 -4.645767e-01 -4.053006e-01 -3.341002e-01 -2.535391e-01 -1.661246e-01 -7.430128e-02 1.953164e-02 1.129876e-01 2.036530e-01 2.890484e-01 3.666014e-01 4.336402e-01 4.874228e-01 5.252145e-01 5.444284e-01 5.428366e-01 5.188484e-01 4.718324e-01 4.024362e-01 3.128294e-01 2.067899e-01 8.956604e-02 -3.251111e-02 -1.526297e-01 -2.642062e-01 -3.615501e-01 -4.403409e-01 -4.978442e-01 -5.328749e-01 -5.455771e-01 -5.371139e-01 -4.805741e-01 -4.389587e-01 -3.834119e-01 -3.163498e-01 -2.402089e-01 -1.574006e-01 -7.029771e-02 1.875630e-02 1.074241e-01 1.933444e-01 2.741037e-01 3.472188e-01 4.101397e-01 4.602847e-01 4.951202e-01 5.122949e-01 5.098351e-01 4.863937e-01 4.415315e-01 3.759876e-01 2.918762e-01 1.927422e-01 8.342199e-02 -3.030791e-02 -1.422584e-01 -2.464414e-01 -3.376436e-01 -4.118466e-01 -4.664300e-01 -5.001601e-01 -5.130194e-01 -5.059490e-01 -4.496690e-01 -4.113838e-01 -3.598084e-01 -2.971830e-01 -2.258038e-01 -1.479735e-01 -6.598177e-02 1.789494e-02 1.013791e-01 1.821728e-01 2.579403e-01 3.263003e-01 3.848379e-01 4.311454e-01 4.629029e-01 4.780050e-01 4.747373e-01 4.519958e-01 4.095254e-01 3.481427e-01 2.698877e-01 1.780527e-01 7.704475e-02 -2.792627e-02 -1.313025e-01 -2.276990e-01 -3.123917e-01 -3.816809e-01 -4.330792e-01 -4.653226e-01 -4.782436e-01 -4.725649e-01 -4.180400e-01 -3.830965e-01 -3.355483e-01 -2.774548e-01 -2.109643e-01 -1.382626e-01 -6.154692e-02 1.698207e-02 9.511609e-02 1.706300e-01 2.412748e-01 3.047800e-01 3.588736e-01 4.013276e-01 4.300377e-01 4.431414e-01 4.391755e-01 4.172645e-01 3.773193e-01 3.202144e-01 2.479007e-01 1.634108e-01 7.072743e-02 -2.549019e-02 -1.202925e-01 -2.088765e-01 -2.869952e-01 -3.512692e-01 -3.993575e-01 -4.299856e-01 -4.428569e-01 -4.384920e-01 -3.869879e-01 -3.552587e-01 -3.116271e-01 -2.579736e-01 -1.962979e-01 -1.286652e-01 -5.717493e-02 1.605440e-02 8.889036e-02 1.591872e-01 2.247886e-01 2.835390e-01 3.333109e-01 3.720537e-01 3.978715e-01 4.091314e-01 4.046021e-01 3.836132e-01 3.462170e-01 2.933259e-01 2.267911e-01 1.493913e-01 6.470734e-02 -2.311438e-02 -1.096872e-01 -1.907470e-01 -2.624943e-01 -3.218577e-01 -3.666489e-01 -3.956018e-01 -4.083154e-01 -4.051322e-01 -3.576549e-01 -3.289009e-01 -2.889340e-01 -2.394661e-01 -1.823527e-01 -1.195397e-01 -5.302805e-02 1.514882e-02 8.293763e-02 1.482749e-01 2.090987e-01 2.633678e-01 3.090946e-01 3.443969e-01 3.675718e-01 3.771951e-01 3.722412e-01 3.522160e-01 3.172864e-01 2.683845e-01 2.072584e-01 1.364478e-01 5.916798e-02 -2.089516e-02 -9.985711e-02 -1.739361e-01 -2.397366e-01 -2.944731e-01 -3.361084e-01 -3.634000e-01 -3.758673e-01 -3.737030e-01 -3.309974e-01 -3.048950e-01 -2.682288e-01 -2.225568e-01 -1.696013e-01 -1.111955e-01 -4.924480e-02 1.430068e-02 7.746604e-02 1.382691e-01 1.947394e-01 2.449444e-01 2.870266e-01 3.192566e-01 3.401042e-01 3.483272e-01 3.430753e-01 3.240005e-01 2.913588e-01 2.460872e-01 1.898332e-01 1.249212e-01 5.424560e-02 -1.890645e-02 -9.108371e-02 -1.589210e-01 -2.193757e-01 -2.699174e-01 -3.086512e-01 -3.343684e-01 -3.465313e-01 -3.452113e-01 -3.077821e-01 -2.839481e-01 -2.501324e-01 -2.077599e-01 -1.584346e-01 -1.038882e-01 -4.593840e-02 1.354210e-02 7.265199e-02 1.294848e-01 1.821545e-01 2.288265e-01 2.677590e-01 2.973557e-01 3.162337e-01 3.233033e-01 3.178585e-01 2.996671e-01 2.690517e-01 2.269439e-01 1.748990e-01 1.150557e-01 5.003776e-02 -1.720050e-02 -8.356780e-02 -1.460461e-01 -2.018893e-01 -2.487856e-01 -2.849678e-01 -3.092648e-01 -3.211012e-01 -3.204536e-01 -2.885969e-01 -2.666084e-01 -2.351316e-01 -1.954811e-01 -1.491624e-01 -9.782037e-02 -4.319765e-02 1.290098e-02 6.863855e-02 1.221750e-01 1.716970e-01 2.154539e-01 2.518005e-01 2.792506e-01 2.965406e-01 3.027032e-01 2.971446e-01 2.797214e-01 2.508028e-01 2.113105e-01 1.627201e-01 1.070184e-01 4.661160e-02 -1.581107e-02 -7.744437e-02 -1.355464e-01 -1.876090e-01 -2.314983e-01 -2.655548e-01 -2.886446e-01 -3.001684e-01 -3.000325e-01 -2.738721e-01 -2.532822e-01 -2.235898e-01 -1.860256e-01 -1.420183e-01 -9.314522e-02 -4.108886e-02 1.240000e-02 6.553636e-02 1.165331e-01 1.636351e-01 2.051573e-01 2.395297e-01 2.653503e-01 2.814459e-01 2.869401e-01 2.813219e-01 2.645109e-01 2.369080e-01 1.994232e-01 1.534695e-01 1.009180e-01 4.401153e-02 -1.475816e-02 -7.279842e-02 -1.275732e-01 -1.767523e-01 -2.183373e-01 -2.507520e-01 -2.728951e-01 -2.841530e-01 -2.843831e-01 -2.639039e-01 -2.442519e-01 -2.157623e-01 -1.796089e-01 -1.371684e-01 -8.997125e-02 -3.965870e-02 1.205645e-02 6.342534e-02 1.126980e-01 1.581596e-01 1.981704e-01 2.312114e-01 2.559378e-01 2.712368e-01 2.762921e-01 2.706470e-01 2.542614e-01 2.275556e-01 1.914297e-01 1.472537e-01 9.682086e-02 4.226521e-02 -1.405232e-02 -6.967981e-02 -1.222173e-01 -1.694534e-01 -2.094800e-01 -2.407787e-01 -2.622708e-01 -2.733361e-01 -2.738006e-01 -2.588761e-01 -2.396944e-01 -2.118098e-01 -1.763676e-01 -1.347179e-01 -8.836756e-02 -3.893652e-02 1.188176e-02 6.235720e-02 1.107588e-01 1.553923e-01 1.946411e-01 2.270123e-01 2.511894e-01 2.660902e-01 2.709284e-01 2.652737e-01 2.491061e-01 2.228546e-01 1.874142e-01 1.441326e-01 9.476410e-02 4.138852e-02 -1.369852e-02 -6.811490e-02 -1.195287e-01 -1.657873e-01 -2.050285e-01 -2.357627e-01 -2.569236e-01 -2.678878e-01 -2.684665e-01 -2.683341e-01 -2.482788e-01 -2.192635e-01 -1.824865e-01 -1.393477e-01 -9.139933e-02 -4.030212e-02 1.221262e-02 6.437834e-02 1.144268e-01 1.606238e-01 2.013082e-01 2.349378e-01 2.601422e-01 2.757827e-01 2.810177e-01 2.753686e-01 2.587800e-01 2.316664e-01 1.949342e-01 1.499738e-01 9.861287e-02 4.303206e-02 -1.435256e-02 -7.103006e-02 -1.245437e-01 -1.726319e-01 -2.133480e-01 -2.451479e-01 -2.669413e-01 -2.781086e-01 -2.784869e-01 -2.738721e-01 -2.532822e-01 -2.235899e-01 -1.860256e-01 -1.420184e-01 -9.314520e-02 -4.108888e-02 1.240002e-02 6.553635e-02 1.165331e-01 1.636351e-01 2.051573e-01 2.395297e-01 2.653503e-01 2.814459e-01 2.869401e-01 2.813219e-01 2.645109e-01 2.369080e-01 1.994232e-01 1.534695e-01 1.009180e-01 4.401152e-02 -1.475815e-02 -7.279843e-02 -1.275732e-01 -1.767523e-01 -2.183372e-01 -2.507521e-01 -2.728951e-01 -2.841530e-01 -2.843830e-01 -2.848686e-01 -2.632096e-01 -2.321684e-01 -1.930398e-01 -1.473095e-01 -9.660407e-02 -4.264855e-02 1.276862e-02 6.782679e-02 1.207022e-01 1.695991e-01 2.127855e-01 2.486366e-01 2.756874e-01 2.926964e-01 2.987162e-01 2.931705e-01 2.759271e-01 2.473586e-01 2.083797e-01 1.604481e-01 1.055213e-01 4.596715e-02 -1.557022e-02 -7.633287e-02 -1.336247e-01 -1.849775e-01 -2.282890e-01 -2.619206e-01 -2.847493e-01 -2.961763e-01 -2.961007e-01 -3.011534e-01 -2.778927e-01 -2.448434e-01 -2.033949e-01 -1.551169e-01 -1.017073e-01 -4.495232e-02 1.330620e-02 7.119692e-02 1.268441e-01 1.783939e-01 2.240464e-01 2.620963e-01 2.909859e-01 3.093704e-01 3.161959e-01 3.107851e-01 2.929245e-01 2.629403e-01 2.217503e-01 1.708760e-01 1.124041e-01 4.889044e-02 -1.678866e-02 -8.162379e-02 -1.426752e-01 -1.972655e-01 -2.431371e-01 -2.785602e-01 -3.023833e-01 -3.140339e-01 -3.134779e-01 -3.224447e-01 -2.970570e-01 -2.613627e-01 -2.168759e-01 -1.652739e-01 -1.083457e-01 -4.795357e-02 1.399421e-02 7.556445e-02 1.348172e-01 1.898262e-01 2.387055e-01 2.796466e-01 3.109703e-01 3.311952e-01 3.391234e-01 3.339392e-01 3.153144e-01 2.835058e-01 2.394279e-01 1.846822e-01 1.215249e-01 5.276429e-02 -1.840916e-02 -8.864378e-02 -1.546693e-01 -2.135263e-01 -2.627513e-01 -3.004969e-01 -3.255816e-01 -3.374758e-01 