<VTKFile type="PolyData">
<PolyData>
<Piece NumberOfPoints="26" NumberOfVerts="0" NumberOfLines="0" NumberOfStrips="0" NumberOfPolys="0">
<Points>
<DataArray type="Float32" NumberOfComponents="3" format="ascii">
-1.827834 0.000000 0.000000 0.972166 1.200000 0.000000 -0.227834 0.000000 0.000000 0.972166 -1.200000 0.000000 0.972166 0.000000 1.200000 0.972166 0.000000 -1.200000 1.820694 0.848528 0.000000 0.123638 0.848528 0.000000 0.123638 -0.848528 0.000000 1.820694 -0.848528 0.000000 1.820694 0.000000 0.848528 0.972166 0.848528 0.848528 0.123638 0.000000 0.848528 0.972166 -0.848528 0.848528 1.820694 0.000000 -0.848528 0.972166 0.848528 -0.848528 0.123638 0.000000 -0.848528 0.972166 -0.848528 -0.848528 1.664986 0.692820 0.692820 0.279346 0.692820 0.692820 0.279346 -0.692820 0.692820 1.664986 -0.692820 0.692820 1.664986 0.692820 -0.692820 0.279346 0.692820 -0.692820 0.279346 -0.692820 -0.692820 1.664986 -0.692820 -0.692820 
</DataArray>
</Points>
<PointData Scalars="n status">
<DataArray type="Int32" Name="n" format="ascii">
0 0 0 0 0 0 0 0 0 0 0 0 0 0 0 0 0 0 0 0 0 0 0 0 0 0 
</DataArray>
<DataArray type="Int32" Name="status" format="ascii">
-1 -1 -1 -1 -1 -1 -1 -1 -1 -1 -1 -1 -1 -1 -1 -1 -1 -1 -1 -1 -1 -1 -1 -1 -1 -1 
</DataArray>
</PointData>
</Piece>
</PolyData>
</VTKFile>
